<?xml version="1.0" encoding="UTF-8"?>
<VTKFile type="UnstructuredGrid" version="0.1" byte_order="LittleEndian">
<UnstructuredGrid>
<Piece NumberOfPoints="11324" NumberOfCells="58554">
<PointData>
<DataArray type="Float64" Name="von_Mises_&#x5e94;&#x529b;" Format="ascii">
803657.0385757915
649046.7780689602
849132.042932792
830248.532043964
691671.037080087
865366.4889348095
822985.6459418793
820121.9591413339
817308.8012097112
746163.2167595057
585390.6739203912
756329.5611600302
881556.3779871906
572517.6939084516
669888.8405085409
889014.034264081
889641.4696490169
583343.7715521491
561672.415763636
652075.701011503
886343.456556395
836413.8028143084
690788.6804640491
850855.9607360851
707194.5959585012
906706.0590280319
909312.5998740896
584917.086162948
737215.3552933172
592114.9810861864
459178.6185628248
476055.5058981217
907479.3011055528
629731.389434471
853538.8537344856
509807.4751044663
652183.5041330783
658466.6633887938
530862.6577038185
459948.347850335
576952.9551905049
626602.1333144894
535792.1765113202
454390.00925315404
614673.2122373627
769908.0480755892
648970.1750859958
721696.3949580671
793340.351692282
592472.108906118
528922.7993632512
528752.1722160716
640512.891609845
574222.8840172614
491878.745360536
551150.059556457
535043.594492464
676913.8259363542
547951.3425133422
448688.2425971482
550624.1478253542
449460.5098286482
444166.3745449553
435369.003281199
410958.04331353155
409593.6458725352
620949.2083227689
618176.3654696554
440227.6177090331
410537.91602239385
549910.9844468251
577502.8801476881
921996.4392411654
583731.8846530152
403711.39410132536
370508.1604585549
337756.79103514145
446498.1930497982
397346.9614440037
418914.81574865355
406656.93569832726
443826.7685629426
378350.0035679057
386092.3579747721
418789.7319729291
411121.4122131287
400392.48877878283
369480.0413812697
908765.8377010487
553450.3504078898
550116.8988340846
936990.0666898559
600333.9919812168
948518.9735089005
960023.6973134843
617003.2699161613
941257.3601234979
863525.4515376799
619074.9965490007
919104.8581411714
586014.4690821917
618734.212801854
788383.241339119
645638.9951301768
560766.3207709071
698519.3829745268
535789.4205347036
484384.8064451713
610556.036010559
520129.6038766851
662561.5982831162
876346.50083045
645277.2629440269
750468.6203499716
504596.7500731455
296067.05761234014
314083.37384694454
318014.4813425035
324330.473204565
271914.0763579883
223917.26477162362
252129.19260306284
234624.57896151382
231634.38992307335
204357.90817589845
154436.3780068067
169810.85308267883
152470.23398906042
417037.40326166444
401603.4562409359
468151.93552182213
251533.03017011032
348269.93398569827
248479.80987059744
369739.21189435286
216764.523521887
431337.7946168222
488216.54757907224
515640.54394815635
361221.67960791703
266738.58573378925
316793.2583061104
301232.0077357364
277976.3236655446
348324.0146738527
234689.22390660856
201432.4350741027
302960.20379518915
352169.5438212208
245227.44502525934
632801.0125493747
938218.5101689827
619495.4703616377
862903.0823315085
593681.230484872
885057.0279206065
699908.7120848948
894004.7918963574
774094.1270291196
677107.7955271907
952659.6621572278
978742.7122427126
611094.2770311728
392106.119465181
413477.9690245356
388865.6636628329
436668.3904512063
391370.3564085469
377449.5310850758
366284.41143091663
413468.7925337679
364172.7995509745
349529.8730833423
358507.5863560144
479841.9413958825
470986.9937563922
722580.9450073068
828220.005804341
483308.4710129026
554379.8525780791
984033.5267062784
672266.8548982652
951716.1062494976
977319.4965833848
683867.124655942
749433.9422587669
910152.5086623561
555521.7355765388
617257.8132578873
745323.3871879361
950964.0393828315
990717.199434292
641864.6786841771
463722.4703786275
540985.0849530111
391962.7131253096
521422.9341275281
383699.0220696461
350882.67554877535
775323.2817252368
543540.2305248552
551994.6828360124
305876.8402980207
258020.64936425752
386428.9920552555
270062.92605692975
396235.47828847263
358578.05932016607
338022.4965340385
601218.1844668763
805091.0250875269
814892.3554991434
537130.9236322106
569229.5911705316
731090.0023273838
530175.5188315006
645102.4025006727
657512.9208621834
518137.2728931501
660579.3128516866
512738.4214996604
452475.8939820181
501547.76789266855
450140.40806744585
510218.06905243336
410177.88939672516
378592.72247989464
325172.6209305119
274906.1180954208
243484.33840108934
201236.02255745113
272404.71398864145
206076.36508879167
289929.9186326136
260976.87530281363
200160.0283236618
389584.9239352831
394038.6300383289
508270.8558342841
512040.31048175297
459611.573244328
622203.1193904872
457491.77819716727
245337.2251429369
231915.5269181115
233497.54581733065
181159.92261941027
151552.28036160223
178250.96119392876
191272.29484216528
296493.34553782473
206229.61754690393
189340.20887399162
126002.1100027479
166671.14784993124
168169.7969354287
283993.05943840236
311271.87393984006
309953.1094452113
185385.50051024562
237584.73133523297
242042.57955697982
585493.9078628377
615485.2738139228
951146.2096761671
674800.4556810029
1003277.91277839
982848.9902681122
917819.494740631
610069.504772032
816336.7067115214
884209.3775997587
717442.6996698704
976988.828081134
673555.4366959897
961584.6082480447
592260.824222658
598959.8366101645
633353.52394281
358344.8263790147
348052.574078298
343024.009294377
317711.4323187393
398504.9276179017
617500.5096836208
329547.94024450233
506118.58187005494
821606.381420981
521980.51909932384
766192.6220828493
584761.0821477132
502124.1361132307
414687.9915916594
468022.55879742885
406542.8476612291
624430.0697835782
997405.8417855845
652886.2271332374
953877.8868137607
759171.5670095205
979449.4716384867
600090.172637983
704589.194217604
712477.3328033834
500274.2193045672
608785.9516314693
823058.882048953
586710.5748333334
728800.4890337201
543379.3392107628
509983.6843628814
525043.3788424575
753131.9728199651
909666.8122220007
918727.8350092268
693491.8072010998
893279.4397170343
578046.5192742256
777744.0611837347
649743.4675433893
680481.5033657353
574047.1889368321
573254.2196519076
532997.1241233171
516600.6188494792
513215.16750742594
426765.6502689829
387695.14985899086
389210.79628992674
494449.96946581063
446381.6624362254
407322.5834054152
385035.72289903025
452241.7289398797
497502.8183387206
401651.7148516502
404429.11189622653
380838.14216504886
382105.0427639858
264944.9925637413
269445.77371053654
282263.39206623135
202362.63749626733
488784.3197421517
439978.41337340744
300143.3110075012
308612.4130340333
215512.62658517895
200654.19253580458
113909.90499474558
143583.11935178176
127792.17807596608
169157.22565914024
153828.7017888274
171077.09716083584
280443.59528483247
324451.2118609315
332169.7623316538
260446.30227064862
218310.11628333744
136022.40307731787
154861.0762091769
208347.31075931183
154787.40558307926
633970.9970833261
738511.1122352675
469892.8017602467
524355.6393059443
668987.3662573674
571724.1781237024
485380.8569501228
828960.9317240953
554655.5579446035
571644.6800970957
808099.3654849738
670000.2155319566
944213.8628037905
979350.0864042216
628942.2079928226
335681.0518061255
432746.7293756227
449151.19211728405
426346.7490673325
406575.8195033039
360996.95038336876
417394.231416399
386041.948620597
487833.3950032223
445411.23971998994
382849.08408527094
343592.0878565994
338118.0544805981
341331.36974759895
379009.1011890855
595674.5259867959
580659.9547161587
869285.9910735884
596353.7564160192
559963.4109286403
401537.33977734717
370828.5292692876
261146.66160951531
313996.53724767995
253705.17132118222
360291.3083353554
325389.97884800646
253692.28008875131
346170.16571082914
199348.9610805724
242710.18418379183
192256.37082342268
331796.05110715394
256928.27095530144
338859.0361462387
271998.091921872
194628.7343888884
197788.636402704
316448.8310272828
158438.5237117323
108656.01125227868
139982.50225324548
122250.80442071665
151789.7949912425
141082.42511151527
164096.97113997609
109483.41408580182
187153.25463689424
148641.47455990934
135524.29183558308
101054.24660833267
142443.15590220533
735013.5804156313
512015.9779127913
593490.5171895728
370882.3962872757
334351.24513889785
458522.55989771616
322634.29342855525
329302.6011095478
435511.8564398009
353878.34936623496
330553.25253140676
426051.8816972504
446604.3715970178
374419.87670452666
235447.24682581957
243799.23459110802
182585.83735826562
437054.17454066285
372094.4567231112
304192.1228167404
246299.647620369
497631.46284937504
634931.2073989412
756472.9937662097
873591.6197124644
709496.045079198
645951.7499139751
499631.7710688532
555355.8932498994
822307.5811946873
811927.3419765336
567104.2297378122
643462.112122849
982201.034674958
641946.2638400692
727043.8096053104
783743.3088506727
653496.4116285511
941212.2644316918
950849.8547005315
865602.1909893892
923473.7149818494
740192.7656783286
1015908.2449773393
967454.5270699003
301869.80455665634
306883.9542441443
279944.82082610624
324646.5373095745
367577.9875747051
371068.64210987336
341790.54850562353
333906.42992045585
310729.7332975844
295206.97309162305
297003.67260069185
522144.75159095
529483.906964135
734176.547215984
726396.7799791633
725265.4495152398
690069.1432257578
124311.98963299519
78412.80259901489
92488.3825258433
107393.07782312905
53464.72263152677
61566.12269770367
99189.99516415918
47803.49124161263
83541.69633981108
105711.31367857542
174794.22098432024
250725.15047619192
152966.25253069738
169888.97201850393
248653.75334774167
85592.16032070895
158707.39532791034
336466.48403774766
272858.5212524679
440361.0531925466
404668.67041815876
120528.19288904154
119366.06343128732
609097.8394587425
459871.1110359861
371212.1025293104
329348.8817896007
523631.6957811744
608276.2889805041
191133.31768084475
203662.62372087216
159660.50926220784
296877.2804437554
57284.0749674777
125330.11110929635
116703.14706897996
167189.1841922443
785762.9983586307
748158.2742641573
743759.3568294769
777094.0757612382
781703.527578731
783777.1812269446
267750.78511185525
391680.7034186821
428390.9028858016
197526.703825812
205414.02467752804
318030.32651695143
269999.45208360394
163376.99875761627
173414.1242486982
145524.3567686233
158118.00869003858
173502.32057367224
228156.77504917321
359672.5264304313
237513.5957892464
289438.1467356822
283333.953991328
279684.6667430358
357429.5788676789
200028.56770796166
219278.5591528039
335156.63528731355
346124.9794023045
775648.3153604033
772083.6213202967
729820.4802515056
777305.6259451496
140354.06571342374
152539.28423844345
167601.5540229292
173402.6446107867
172241.09525019102
154134.5820918827
141532.60781769114
135707.22477678733
160111.0783430807
1340907.7844656666
997513.1931341201
1349726.4025335677
1374083.6878821286
1369259.9213789236
1324380.9972763148
765745.2448709261
766602.2683134922
723415.2532653215
773181.0938081566
736079.4415180159
691955.8303511965
677700.2669101849
696462.9241747762
688361.6551417392
733954.6518476446
740607.480526406
736569.5189544806
695606.5093943225
689394.0124010385
703224.0448488742
708118.9267544133
742055.1145126947
743140.298813673
749970.7916055927
725543.4527659223
750066.9084204152
706944.7363233173
758151.438378729
733366.6202787176
760787.1112484718
753760.1357933469
718707.2126138847
725648.2672935585
1201601.204615144
1319152.7372831118
948385.1283688344
1247958.4750960981
1424361.9279161238
1421303.1335439114
1362551.7276320402
930989.8321747077
992770.3833545392
892193.0271449962
1029799.8546757676
1384822.6357177806
1249981.9861460857
1238713.3214422683
1009783.7105812395
1399466.141719256
1224173.6460458005
1024397.8534752274
1214609.2721293494
898789.6854560657
1051463.1133015936
1089810.061894706
1233411.7454101716
875169.8267063574
877796.1920250332
999412.6823070511
981251.1954600593
685118.3269178747
703821.696394814
756604.4269083831
672153.3777033184
664833.3233253091
663081.723679143
304543.2958101784
372873.64747883135
239637.9074439412
467031.55343277473
423552.1378562181
180530.37634858934
280157.03297270444
242044.55261389914
245886.07371670715
174459.93035223288
309990.95951453387
322067.50232808315
419848.30285172723
373849.3411426842
309307.90219082165
606777.7251942584
697943.9576041254
354137.817292918
301207.8058862214
225383.26852809766
243763.36594719128
214919.97360352354
171688.45533849925
327642.3131313966
411460.70408846467
593753.6676704133
502700.6857469593
350858.50661215774
529335.8391304964
610129.0161403335
739319.9890571366
356100.5473190989
465706.8214536992
605204.9841669071
546470.533899513
657350.7003197767
926180.1659549469
706976.4188794714
970098.9038386814
896335.8845564788
818002.7992391016
676245.486443041
955463.656557676
270035.5538070251
255685.69984133515
479393.3332113909
454607.2428781709
486297.64900467615
535242.9774837535
666131.0315377387
958204.4706095069
1001064.6073690964
920438.8564937935
738627.2308102527
948282.6014881588
982836.9682660252
605693.7291033547
633516.4081746823
576264.4711645932
248625.82720279388
236917.4403803497
668515.1029328047
645162.9665646532
652174.6256726914
659713.0658439941
743253.0954927441
716492.9927709473
274697.1739778653
319175.5437092046
290217.80270711775
291431.66288584715
260296.64910376587
267681.9918737387
243893.93846104507
234258.1175114865
344440.8344606839
390690.1115991965
269349.99394588085
292822.9384180377
245711.60109293557
648502.7590237416
646756.5351986907
635991.8736094822
664334.1350545316
705761.4796492757
656934.8316890823
646977.1407343926
613158.7736865884
636530.7981781169
638440.0831977683
625170.0788287873
624661.9095459296
666828.9903623167
714525.6872482353
684951.1989761053
696275.0837255081
692225.1942054934
704505.5182514709
707885.9991448371
1005314.0790434716
850048.997047754
737051.4161835834
1041866.70403754
820385.0131135524
758755.127267747
1034702.4149886518
797954.5351792591
1043059.7214822804
842389.4301358452
803369.4015792826
826347.3083685824
719167.0849435306
684797.5242743564
796332.8581293859
760721.6610316738
1230745.1208490934
839445.1334137168
924182.1332581792
1355983.9199860143
948092.5629612816
1064520.32634785
1417636.3839868626
1003916.497903408
918111.2049866972
945111.5316593737
953040.2833380186
287418.9789319641
469949.91367211397
338557.8216631422
457592.38072601764
303331.7657800626
151833.04395440544
183457.24246269537
300793.4707429093
163102.87279205618
281837.34438101266
288325.3568637133
679892.1082845229
440755.4205820508
402012.21721433697
663461.6598767947
693252.1482868739
512629.89287934214
829181.5508958407
592203.1193247387
478974.82689877105
121599.48220516535
98500.4530518638
104168.32750455277
119592.21140234523
123000.89048931173
130817.4652218328
161537.79278601994
286916.19024647103
174648.45314327168
190832.19959562013
435866.06402838597
301927.8704205753
223710.47621078487
125279.22450217126
108109.67051099478
110275.47469041424
588466.7108419953
575486.2180753193
562386.7012411938
666911.2281642209
489853.11746602866
375847.0499150172
360804.3921030573
506511.35656994465
478960.65016103024
681512.53789397
548322.2757255816
877215.6932898018
682825.0305504521
663597.3915926012
832677.5668542662
1049064.5344760693
845897.8571205613
1188375.1404414363
893444.9995583814
652313.8734741193
728290.0219545466
784663.3499275674
493312.3423634335
190017.54786183286
237365.88357619083
257865.5741085837
372815.079382482
668501.4461845447
204395.3581605318
684609.672781819
716939.8586549158
770161.1581195308
733238.4402905554
732264.7891002703
774306.4441577249
690748.7516186393
693944.7548949631
460368.2800289462
560290.899486555
1059010.346994685
863131.3648628305
1175656.1132504852
1009624.7742690031
1246118.514146698
1321353.9723565232
1300686.7053331393
934827.7274638613
1300556.3161357904
1163088.1259479958
924459.2636528993
1248483.9980458883
868881.6524092229
900029.9699506595
1133084.3382550988
1255724.7166166909
957321.0482854494
907202.0012440388
1226431.7165688763
1241576.362316422
854642.5305388696
1198236.4623832253
902511.4470490435
1115777.6848063646
1062229.7804834961
907221.1051156819
1170461.0903409652
1213918.7214666547
1032135.3350475039
912567.636421619
993737.2989488776
283650.16169035056
303746.47554839536
351365.34525007656
345183.5001835704
519652.8467532064
429317.20549078676
496915.0164832822
528202.5944112987
459442.5505843075
502920.2110231519
427992.88616347505
691484.2864904415
469145.9932717757
276299.0569397378
360184.363458286
514916.86773327726
672169.3411121017
859694.1450496329
1046712.7477388141
732190.3170516435
974623.8224282475
180420.6840876197
354102.53106863255
380599.1146927121
705191.4581971677
514509.1867615353
860426.3250357208
728600.3936964726
699757.1117949768
733173.7825904507
693402.5572043302
671366.3198030657
767181.885766344
696115.6488973765
679277.6649246674
723583.8970276369
179169.62351704657
146215.61524162354
155780.70498408802
972444.0714964904
1336029.6813325565
768766.0760763674
1011100.0930398171
856282.9027688398
891817.7114213257
701250.7838182196
757546.1887087483
764325.3238285595
702226.6860201855
765542.4893818427
681083.571539842
741956.3122231321
748660.9630516643
739526.7069213401
710787.6855024734
754378.8024806512
679585.793708977
661554.1632970129
710591.8213711058
761778.9425804283
760827.2778471895
645812.5763140497
647674.1887191461
709819.773353631
669320.3603425412
662850.4573982616
660807.0460131014
702174.9713184832
800762.2008949674
768584.4148079235
756187.5409470245
815219.8786858618
757627.3511593498
806058.5279988961
754919.1813759957
806712.8821753544
750258.5628029932
688224.8158470977
741207.0478833313
655893.1431312583
743550.4415541881
643050.3536149084
632055.6114297126
618743.747436951
639375.2716613828
613412.7904358238
644870.2065243685
638235.4005910684
625788.0842220677
641806.189901206
609991.0874069644
636678.0540763282
460273.6231620036
360669.1191503582
388182.05453324225
534681.6405052277
805688.6014386057
954937.2541193728
900762.8131826322
258190.57427068616
176108.7239234146
266488.673814542
422208.84994951583
521889.6768916678
620092.941944686
236428.06670447715
219521.65778084588
255105.12352328975
242091.39813850579
176833.97579008967
270829.18275545305
225043.72706076116
347540.5527174353
685624.458418415
803826.2999322157
898719.6342670072
890080.0005590856
805377.5422811088
893787.665521991
815646.8666275259
573169.1136491456
567066.6621322047
489409.95676456817
739981.2256666913
640467.6272612944
482295.2222837723
331764.7727545059
339931.63614584936
328590.48237401305
361245.3475729106
532350.9340617581
397446.0832804033
586186.5409065351
695638.2198518631
428692.1008538358
456739.3994373089
400914.38467814395
601465.8071253805
759555.6838952674
937526.1456595062
943585.7770248157
569688.1307511543
566612.5222444276
537150.5315925038
574759.9858936162
975950.8537279405
609581.0519971594
992588.5574035352
952139.7734585495
1116418.6475330447
727044.2962932221
859030.4103077833
999246.423282792
722848.7545096895
962869.5085603868
915536.5668541617
885628.6195470131
863317.3858098184
219125.83202745212
227925.99901348253
561669.6875742452
576217.8987325749
504340.7394411065
615053.5672391894
614769.9386617589
201867.2979899681
204824.84625331723
207404.584272852
200736.6260009029
614315.2024994217
631785.5877993337
600196.828390782
625372.7518479133
593481.9262547017
636664.0327329222
866315.5015682904
1179401.9346199308
1146612.3170475161
1080618.8816500886
760787.2731694974
666106.3873884216
682931.2941849512
657646.6906633411
670047.0973557018
676603.5967719081
669745.4558671748
663605.66429882
663289.0230996347
631526.3869396955
661453.1545044838
663058.9424289331
663592.7522908504
660105.3341903472
656212.2223488137
626515.3908396759
649262.818046189
578923.6079418603
229229.29903627982
253535.46747706228
273048.4947989319
229107.19180813944
268488.64668713487
237239.24066909635
229680.43877996597
204490.1725564033
331867.9483308039
342104.7022948219
369095.3384091277
495082.28692275606
486985.34631871275
364430.1678407833
294253.7650956642
262025.92427000965
648710.3920845538
653150.3949261223
655687.9630522951
650165.7776466914
639535.3758768061
658279.5118510184
654207.3816271459
627224.6957344206
644160.4985251158
628072.5931926369
641015.374803535
640452.8585073603
616108.2492333824
650883.8843404102
617570.4094787114
652521.7311353036
617472.8460488693
659387.4910766704
657312.3600653954
609162.1211363208
654972.7752832158
635155.4702174682
669041.0452119121
712378.242389047
724643.8116963564
692158.6286232469
760650.0079995769
756593.132597393
759544.6178604601
721109.1707445845
767705.3079569206
165815.7634404915
286657.9316744171
151104.18370264798
146861.78490555717
139676.3281818253
580598.2057057561
717688.2470432126
643087.8737867542
878859.3420821205
601653.8326701223
858467.9082909998
621428.0822116027
532882.9149814729
668086.7584160995
711490.97404985
272110.21183627413
466695.1038575751
413332.37871167687
632474.896080321
258489.03619520908
351604.0581504571
684754.2001519466
762614.7283885102
744278.4223667867
701483.8818597666
669825.3836201488
650182.9402326482
523882.73876221594
787752.4735522561
865871.0996789652
748689.3763168494
747937.1805599991
737180.7658501605
738905.9818578559
488120.9501440634
691378.8015193181
811994.1647782867
822447.7860198613
573802.143614852
856405.9920696762
683561.011152063
667452.5536728866
510488.5493710776
847115.5602951585
667089.4603909916
594162.5817492546
447631.6460634414
692542.7822158821
577466.772084996
512913.7429257858
578227.9677157413
408241.8773269953
460944.4223526267
709082.3410850927
536936.4785680422
765019.2207645115
484954.7241027169
620788.1870809911
691754.5249212603
706753.7643882679
749963.4486368144
734386.0644506665
685429.3881435058
679940.2175074179
601910.4874068025
637535.6414432122
614951.4518356884
654719.2819885951
710611.7062696215
605438.9524093209
603868.4768784654
645183.0977392315
657715.9725229001
591877.211333717
594143.064590864
654218.7386070925
600426.7194375296
650574.4724868231
667231.2362177721
587972.0283398229
649769.1941847802
604476.7846643387
607244.2718228771
468080.9811004135
700020.3378205484
618552.3436311949
598926.3575859168
611041.3230901506
905918.6737910197
578992.0436320978
572489.8045052005
817648.3530049069
475462.43432835676
524713.1322292818
743712.0949862795
924942.0722213404
607060.4694093864
562663.3763675372
941173.607659768
312794.14713076747
386350.1158286305
520751.11992966046
389461.35745099245
579991.0533214667
446650.9593085828
648091.1082148405
659206.2873518841
341213.4960514353
368531.1927743428
358880.81850841775
515441.4712353571
679424.8959789479
881181.9566603485
927703.8049256295
562471.3884648302
795194.7892621348
644296.6986646083
787716.5269422036
874414.9572032122
803650.0402485817
395741.56619292405
576844.135224975
678478.5812755204
670468.3704987131
365828.2206308231
511735.14012703893
403872.1181890303
504196.08733018825
653270.4781459806
414722.3047849421
446227.60516717174
630011.2648926149
795856.1298800117
893237.23527267
903136.4773806665
832817.4541238978
652027.5572822081
904422.330989995
772838.0475191228
604785.8136918761
697012.4854536427
546833.8762676135
478526.33623662876
751375.261572836
522535.21968427993
426509.17442327866
459934.8121155933
503831.3418196497
511256.7323537578
510388.49206079653
939420.5316843191
641204.3202193243
975374.0545079444
599010.1567261692
577697.2120582231
711191.3369636501
1015745.0852949057
668549.9167499571
700183.8590617306
1089668.8317680685
1033019.2883541894
693700.7901134335
1050892.8075981236
669009.953356107
959597.0450199496
867989.2255292251
1007507.298090076
764464.0653346725
1080530.6042883398
695311.5844319086
778297.692615273
664512.1900135181
989458.6199872184
1016795.2671322537
980502.4062697218
625319.1012538002
745474.1526546257
956341.5074807899
632056.8696396723
634315.1978100454
612503.927629575
647803.4883839283
420906.87204872014
534893.6788994159
728794.0431049862
500773.5395117195
562247.7315805244
518927.0226119964
799569.3005212117
799198.4228586535
595955.6830841425
568352.782610803
654189.7738114938
650796.6094337578
558172.6046096272
506414.11470833234
188828.0888599123
160793.63222715454
161848.00275630402
180407.31081585723
201456.82593301978
208202.8998376279
158290.31747841675
155897.63254831888
172245.18478203123
151495.74845465703
185915.86756354655
172938.3387860498
181192.889184161
180006.13902618154
166542.48186372276
158881.05882831154
170532.57815117517
172565.45783790888
145087.69327011125
139121.2925832751
579741.6692984707
568682.4731371029
617764.1047477454
654134.4143618129
616601.060103426
574693.4055769035
600204.758158737
642391.9856926602
659953.8347326614
659694.0526236539
620830.4107265222
664674.4077362077
623699.2666397826
627650.0302194215
620268.2477084347
666530.2614526678
612064.9679889008
667879.1998780528
655692.0592168301
617401.9571955202
661298.0634024413
594760.4262724187
602991.1787422519
612122.3795855312
669346.1884379162
613492.9759351683
664390.291517076
663909.6351675745
606968.2988142403
673992.1114918299
626238.6879743733
586618.6320427526
610443.6736743656
594257.4533529883
675744.983063103
670256.4523639607
665800.6290544122
662267.7356645216
664656.6447853782
666431.9254420573
613209.5389353059
667032.3560831432
595852.9470413732
661894.9090973384
613870.6123362648
666559.7998781165
661386.837557916
666443.4634609061
596022.2322422966
663923.8880220484
600940.786034759
592500.0270188848
668277.2285142251
652571.208282479
571852.6891489765
567876.2699381296
577862.1109704752
218891.36200966508
235003.0238763231
170551.33444464894
184659.49681400726
170325.2359208011
157670.75536616548
190789.12555457838
203096.51091213943
213631.52564764553
208069.49979416322
180599.3148480135
173766.90328421022
188184.72158761017
199362.46271371844
145888.30289872558
154823.7636277844
138778.7312759915
136020.46346764424
146466.80695245456
142425.10439752636
168239.70256190182
161434.45515153222
148798.30255945784
142185.59928127687
128833.42348079986
126689.41785546065
615527.1020562369
589125.610473201
607597.0567283431
667472.0748746364
609590.1212084102
660465.5589602572
597987.3314657588
603102.6521063414
602292.7701931943
583867.7901328759
613076.5557936385
681160.8236937866
668750.7730387042
666348.6331606954
568872.9396449875
423642.3693446967
516483.675337852
637330.5380380852
590515.405496119
698077.0441094121
619156.9093722928
626967.8105413981
574881.1739908791
117699.60477512122
116795.3584188937
138352.99834286474
925538.7681046502
602050.9985490468
981147.94436576
590170.8232063039
582746.9918946906
916662.8469415512
923939.832009429
546831.1221161173
596179.883123666
964357.3374443493
608368.4842700305
593150.1327274054
973291.1940013394
635418.2396861791
598577.0371141809
954225.374944224
601155.1547195694
598025.9971824642
570249.8901833007
553443.0254872559
460927.9311398391
501770.5627373763
512607.1535080283
452056.38609022193
519941.6058526076
483300.99564464967
134776.1431208025
130770.87157369811
146909.60445394902
160558.14794923068
138905.31493008885
149703.71106741633
124110.28713484546
121768.50436657917
128793.79913343344
608820.8886442657
595923.3209539716
666882.4390068764
587273.9552572417
668422.189714733
595468.2256899686
657707.0721116151
601007.6539183623
667885.5861413868
595340.185910259
662732.0008967445
615918.5945819257
582908.3308603236
589467.3174647103
597961.6347990696
669163.5354600209
657399.683332746
595446.2109109159
600695.4418242618
663013.4742751763
608395.2522646989
644309.4009813617
579422.9525901409
606882.1109047037
662819.5149122812
663569.3919754929
606058.8575183279
596173.7372464947
602956.8255722716
641226.9384439719
635749.7707646947
645278.207235519
642983.8722908058
598365.6514270836
602663.9510412394
588589.310458894
572088.9081832597
578421.4022034638
575789.1275135454
610109.9830592554
644592.0907910512
578998.7183742521
583909.5905476739
605753.4453065009
641649.0049012756
651919.7197798361
610762.2131511293
662785.0368608213
591030.5294063699
640263.030859383
591008.1263542256
638564.2740652045
597332.2490805523
633055.45621409
574954.6288998718
639219.3447724706
638517.3101625077
596223.7659877671
577020.1328387533
631719.3620646846
631180.0371201087
629271.7341961139
626727.7273936026
628051.1843172429
647916.1897550401
598799.7062966978
652549.6781442472
652605.2172379945
584186.5525253948
636419.5940298223
568172.0374099442
595454.0305729407
593137.2402511658
636892.6722413744
638573.0801120198
559260.4146372513
559578.5900434925
152857.25405418614
144043.5385058391
139646.25653318941
112693.33856819682
121604.66732136332
128837.98223717826
121454.7712729247
112639.8395239794
127082.00656286771
107539.7644989189
122728.9049155693
120209.23730587211
114767.1170321498
124113.73897290659
104240.84842356293
131617.53681141738
116139.84271584706
124408.74372837636
102636.00926476602
99851.5492014911
106269.00775924428
105101.86574153924
114479.11856237618
130741.91064357397
105784.51046332823
109186.52796042668
108086.30482410161
101839.3292181909
113729.67069532089
115543.51890711009
603087.6991530745
626695.413700295
602726.1084625432
589955.3426088946
580993.9192267999
575024.3742564757
592291.5000860681
590756.1555188909
621557.0026738709
625036.6170650381
590866.5615030346
620178.3838630752
624157.2220711492
587399.281405937
590703.1119379915
592423.8485436498
588637.1147475843
592263.4151845445
584861.1606929254
627361.8048831705
583221.3857767946
623808.3759205447
577751.9795106085
623914.5972190601
621928.0160815899
622101.585248715
563440.0645502139
620442.8872563752
621773.8442851083
575062.3672149549
552406.506860994
621687.387155059
590933.8198464786
576216.3524430844
616531.035231897
582176.0707034068
623343.8870602937
108847.91860769699
96255.89791003884
102520.29542059528
96027.80383518535
107196.05671034826
108597.97988496121
111370.93026359702
99128.24222158604
98878.05862332633
92090.13903504673
108063.04524042703
106374.46116162761
105265.00409268551
100357.28147930211
93869.17268727794
97497.79687770628
50919.58296137792