% Model:              15-2.mph
% Version:            COMSOL 6.2.0.339
% Date:               Aug 1 2025, 14:48
% Table:              点计算 4 - 点计算 4
% x 坐标 (m), 点: 6         x 坐标 (m), 点: 7           x 坐标 (m), 点: 11          x 坐标 (m), 点: 15          y 坐标 (m), 点: 6           y 坐标 (m), 点: 7           y 坐标 (m), 点: 11          y 坐标 (m), 点: 15          z 坐标 (m), 点: 6           z 坐标 (m), 点: 7           z 坐标 (m), 点: 11          z 坐标 (m), 点: 15          位移场，X 分量 (m), 点: 6       位移场，X 分量 (m), 点: 7       位移场，X 分量 (m), 点: 11      位移场，X 分量 (m), 点: 15      位移场，Y 分量 (m), 点: 6       位移场，Y 分量 (m), 点: 7       位移场，Y 分量 (m), 点: 11      位移场，Y 分量 (m), 点: 15      位移场，Z 分量 (m), 点: 6       位移场，Z 分量 (m), 点: 7       位移场，Z 分量 (m), 点: 11      位移场，Z 分量 (m), 点: 15
0.21415179936934672      0.22815727531618785      0.27709761803900823      0.3261009710005075       0                        0                        0                        0                        0.10169453049878549      0.40370304042660876      0.5480091067273196       0.7952139564480099       0.014151799369346707     0.02815727531618783      0.027097618039008217     0.026100971000507525     0                        0                        0                        0                        0.0016945304987854904    0.003703040426608734     -0.0019908932726804564   -0.004786043551990206
