% Model:              15-2.mph
% Version:            COMSOL 6.2.0.339
% Date:               Aug 1 2025, 14:49
% Table:              表格 15 - 点计算 2
% x 坐标 (m), 点: 6         x 坐标 (m), 点: 7           y 坐标 (m), 点: 6           y 坐标 (m), 点: 7           z 坐标 (m), 点: 6           z 坐标 (m), 点: 7           位移场，X 分量 (m), 点: 6       位移场，X 分量 (m), 点: 7       位移场，Y 分量 (m), 点: 6       位移场，Y 分量 (m), 点: 7       位移场，Z 分量 (m), 点: 6       位移场，Z 分量 (m), 点: 7
0.21415179936934672      0.22815727531618785      0                        0                        0.10169453049878549      0.40370304042660876      0.014151799369346707     0.02815727531618783      0                        0                        0.0016945304987854904    0.003703040426608734
