% Model:              15-2.mph
% Version:            COMSOL 6.2.0.339
% Date:               Aug 1 2025, 14:41
% Table:              点计算 10 - 点计算 10
% x 坐标 (m), 点: 5         x 坐标 (m), 点: 6           x 坐标 (m), 点: 7           x 坐标 (m), 点: 8           x 坐标 (m), 点: 11          x 坐标 (m), 点: 12          x 坐标 (m), 点: 15          x 坐标 (m), 点: 16          x 坐标 (m), 点: 19          x 坐标 (m), 点: 20          y 坐标 (m), 点: 5           y 坐标 (m), 点: 6           y 坐标 (m), 点: 7           y 坐标 (m), 点: 8           y 坐标 (m), 点: 11          y 坐标 (m), 点: 12          y 坐标 (m), 点: 15          y 坐标 (m), 点: 16          y 坐标 (m), 点: 19          y 坐标 (m), 点: 20          z 坐标 (m), 点: 5           z 坐标 (m), 点: 6           z 坐标 (m), 点: 7           z 坐标 (m), 点: 8           z 坐标 (m), 点: 11          z 坐标 (m), 点: 12          z 坐标 (m), 点: 15          z 坐标 (m), 点: 16          z 坐标 (m), 点: 19          z 坐标 (m), 点: 20          位移场，X 分量 (m), 点: 5       位移场，X 分量 (m), 点: 6       位移场，X 分量 (m), 点: 7       位移场，X 分量 (m), 点: 8       位移场，X 分量 (m), 点: 11      位移场，X 分量 (m), 点: 12      位移场，X 分量 (m), 点: 15      位移场，X 分量 (m), 点: 16      位移场，X 分量 (m), 点: 19      位移场，X 分量 (m), 点: 20      位移场，Y 分量 (m), 点: 5       位移场，Y 分量 (m), 点: 6       位移场，Y 分量 (m), 点: 7       位移场，Y 分量 (m), 点: 8       位移场，Y 分量 (m), 点: 11      位移场，Y 分量 (m), 点: 12      位移场，Y 分量 (m), 点: 15      位移场，Y 分量 (m), 点: 16      位移场，Y 分量 (m), 点: 19      位移场，Y 分量 (m), 点: 20      位移场，Z 分量 (m), 点: 5       位移场，Z 分量 (m), 点: 6       位移场，Z 分量 (m), 点: 7       位移场，Z 分量 (m), 点: 8       位移场，Z 分量 (m), 点: 11      位移场，Z 分量 (m), 点: 12      位移场，Z 分量 (m), 点: 15      位移场，Z 分量 (m), 点: 16      位移场，Z 分量 (m), 点: 19      位移场，Z 分量 (m), 点: 20
0.2                      0.21415179936934672      0.22815727531618785      0.2287207870713686       0.27709761803900823      0.2781549304033925       0.3261009710005075       0.3                      0.34993009482781434      0.363248679991611        0                        0                        0                        0                        0                        0                        0                        0                        0                        0                        0.00505102572168218      0.10169453049878549      0.40370304042660876      0.4976755155146316       0.5480091067273196       0.5970253651654154       0.7952139564480099       1.1884848003542399       0.32820024658405006      0.19776441666548164      0                        0.014151799369346707     0.02815727531618783      0.02872078707136858      0.027097618039008217     0.028154930403392498     0.026100971000507525     0                        0.018047350021209357     0.01324867999161098      0                        0                        0                        0                        0                        0                        0                        0                        0                        0                        0                        0.0016945304987854904    0.003703040426608734     -0.0023244844853684173   -0.0019908932726804564   -0.0029746348345846218   -0.004786043551990206    0                        0.004342784799610044     -0.0018347938775943682
