<?xml version="1.0" encoding="UTF-8"?>
<VTKFile type="UnstructuredGrid" version="0.1" byte_order="LittleEndian">
<UnstructuredGrid>
<Piece NumberOfPoints="11313" NumberOfCells="58401">
<PointData>
<DataArray type="Float64" Name="von_Mises_&#x5e94;&#x529b;" Format="ascii">
51655.72240444172
52103.82241609576
53940.68398649755
51645.815177235396
55110.769503508374
58698.05964559329
51092.37496018205
55229.138058462144
52104.93935881987
52807.5823971565
54361.41565843093
55673.8771621593
51614.003142341164
50815.928200835915
51876.73241936002
55781.96563903222
52831.4055684487
52234.38014143161
50439.670839273145
52193.840158286315
51693.79085944056
54943.13832671454
55191.37878553306
50995.558503897
53800.25705415506
58881.91398429189
51830.350958244875
52073.153956549344
52975.03731586052
58820.929410018725
54324.234438093335
54125.55074983092
60341.03621916587
51381.18064053587
55681.08149286178
59865.64437798554
52130.54036866036
50998.06894875177
52116.77356925529
51737.45527728945
53505.7241796197
54800.16548432704
52748.79061936488
50935.366210062384
51978.513854636716
53843.65982814942
51672.48907580305
51924.48633803245
52181.65927492134
55535.9655144267
59842.541506310146
54083.99074747259
52358.6188968163
59771.57894983205
54367.75453747372
53348.56139037326
55396.98198773604
59293.40490955049
54283.615308350774
50540.84904486553
52086.37092363281
55305.11094363836
50621.84575905267
59645.92837607898
51210.9356115174
59764.40536078691
53728.687232620745
52268.90720227524
51916.61547976904
59953.84409537843
50510.854042828665
51664.23663799433
51775.659765007964
52417.752090926966
50283.5988341217
51698.594280683625
60203.46931013622
52080.81468618596
59676.51107076951
55042.175334528736
51947.7360864861
60023.4777456996
51616.48387043432
50716.41833526796
52458.18988928586
59640.78502029128
51072.530330338195
53815.39849483346
59608.966294950515
50241.09560073608
51979.64336300511
54026.733767617465
52180.18241179489
50216.55194521453
53946.93322959268
52199.39097786848
55246.83081982328
59631.42741200179
59364.226267812985
55578.69477364792
50030.53772739733
50859.812857898105
52104.83925832876
62754.136661432225
62245.339045064386
59187.82803749495
59858.45777646889
54130.149857945704
50189.788438035204
51955.7006082545
59247.369792257465
59657.718696898846
55371.30057225667
54155.00766011099
62740.07528552872
54463.56005958876
52569.43530656245
59038.011965961996
50812.78118588051
50077.94151031487
51722.5936794034
51904.81459050666
50625.58834318044
51794.34595761175
52136.49448301292
51139.83967367084
54213.671203758786
52002.57485273359
50037.63086937231
51994.49462914749
59898.10620888568
57807.89562610945
55359.350877761164
49787.530272698044
51691.648912277975
56177.252753650035
51329.61315493774
52274.673117189224
51955.43995370127
50109.244905400956
50273.625653699164
51903.12254426116
51873.83995016346
52010.20741572655
53694.67812377233
53968.67446694271
52919.62813292109
50358.24834345863
51789.66655184323
53817.86564401617
50853.53867109537
52087.883705257314
51355.75324951923
52919.71187426023
51699.750632118135
50496.09121935429
49644.567262624434
49968.01805268743
49992.423709538416
59834.9968143054
57041.19957007436
52497.647278622906
59532.66425143046
59635.024385909586
52949.43331502308
62854.62663676504
62329.90822691171
53321.21272916978
61923.052504703635
51240.76820895286
54719.531818219344
63317.1789315325
50530.060503950204
56800.44508401133
53082.10758156652
62058.10796040904
53394.43033827486
59931.967711806996
54141.865476733845
49887.16737442992
59939.86677894022
50538.32806112868
51304.98499635505
56326.22283530041
60112.01516498155
49837.34141289808
50291.80198046975
50869.79840448979
51715.447242880335
49775.00207699226
50228.77911144615
51439.400368440845
52644.76076856622
53654.05115941681
49861.247675431114
50494.77347444613
51965.36613756995
51164.430813665844
51877.66986905587
50818.69044982186
51970.951428082895
51908.28140505531
53531.57141557713
60113.084610543796
54430.38081960175
51440.082506426486
59675.09434805626
55479.754751614084
59008.332851934414
54251.71929227272
50625.78266778039
59059.01570578484
52033.060830771996
51063.19776509693
51838.38427830342
52732.91530973387
50251.28283090257
52174.41886650744
51652.71919124312
50414.332251385524
51752.025716267744
52439.11192119914
53108.49665268347
52575.12497072415
51772.57999450091
54067.643099692345
55375.374259869874
50450.452645352176
50387.861286930995
53688.44755262737
57066.37045897176
56301.62870610766
62139.55092305078
62662.218592708305
62287.85954334913
62621.98655220548
49568.0677517082
57987.386057932556
62814.11862761903
54709.78523402112
54638.52034491597
62339.30409895071
55334.55880986617
50064.954577489516
49605.73357402614
51762.64733784222
49733.008684588036
50600.78361242164
53151.77055445036
49789.46217697983
51856.992072179695
49930.24321862092
49897.230458226964
51286.928833244754
54239.41509809477
55442.69083826538
52079.761087114806
51947.15548866689
52154.813154496034
51942.86899809177
52308.238580091085
50376.583849861505
51671.288149247695
51852.217017768904
59292.273918343555
55399.756792290624
51837.599133584656
50307.02474751664
54443.19072670663
54467.62474880104
49791.317633592254
52408.93196082483
59729.82679789681
59832.47857569131
50741.79034250888
50123.033877956215
50285.49612031286
55700.45279510636
51557.93991278841
54867.5944464661
50265.0791971745
59918.48517870215
59839.39742260073
54233.97929459164
51838.94994111344
51881.52725852802
59985.91556284174
54003.57051835573
59845.98485508778
50363.625020370986
59605.946041396805
62317.72034088884
62197.47234011805
56998.948458030274
55430.2914135382
62855.576524670556
62544.67101786837
51673.239486813334
50095.915845560456
52767.37435348332
54497.90922879757
52427.77668912785
50444.92229271884
51753.312841858286
51995.12981336982
50251.39982537566
51249.49042793691
51743.371554251884
51872.50272254313
55066.45880452748
60127.34240075885
51196.54642172686
50498.85859525401
52581.02562014473
49737.67821781043
53057.11620326649
51163.46109823846
53005.52245423717
52323.0790111343
55191.98544645472
56297.6865057662
51613.931798202735
53671.915245224234
51070.26555266624
57144.84310472628
53256.20182230711
50737.93126062887
58157.62649241677
62192.527398243314
52324.721989308964
55308.979648195826
58120.28630787593
62494.4817495958
50075.404817931
52717.22785607816
63087.82917940444
63701.68762193549
62177.7776232118
63005.5776308081
62094.627377012934
55314.76363502834
62108.811811447995
62806.26089146671
58015.701916485516
62351.0654283394
49936.40406583785
55900.33731125724
49491.00505906628
52696.8046164279
50531.44355222089
53259.83864799634
54830.32317653727
55177.55658284802
62381.35378631291
51971.39674092383
50589.14082041929
52248.84447956979
54366.22162064272
55091.11065198919
52944.06306397495
62775.14428933785
50653.97812306152
54791.31744154084
59045.2583216692
63454.12502304404
50284.304381162554
55240.986273126604
62778.00998150123
63631.10296909742
58624.90014277679
63768.61453851334
53725.58220815467
57957.96272061542
56626.202921089905
62396.94159650297
62612.6756475556
63272.461254076065
63628.52306234619
62135.23442872351
62887.465712700396
63844.919343928625
64187.94912580918
60505.32423269978
63261.810117799134
63643.438727595945
50563.525779527765
52674.20848405612
55187.11887435532
53289.43693098224
57127.607737606326
56199.85393983824
53572.87912606779
57093.513406003985
51720.34392009109
54274.815448082714
50885.006281260896
52822.8806017687
55753.90279287184
55526.185509638875
52631.13515504475
50727.12561054844
57055.235913616525
57230.07601120495
54394.28913718535
56016.830669302304
61688.57677588294
52449.60144342697
55298.85120079843
49920.33529757266
62843.35279573283
63388.87761180303
63639.420686991885
58642.38179665405
55833.37542220842
56390.16864180698
58771.39730316947
54246.724437618774
63699.82365454374
56120.496067285865
62008.377325270565
55514.73329833697
58775.595754079506
63164.52912086015
60743.21671674492
64253.25461169073
69738.19665975527
63674.247221695696
72348.79519371987
68927.87512284936
78686.09954471058
76034.21838142003
74070.56878198519
85887.87319042518
70907.97643193117
65894.1905613079
75496.624853294
73537.88999528797
81866.21228649518
62267.98406491626
57163.56067114043
59529.52898776687
51028.605567708706
53288.44276516401
51893.67718351617
50756.94625555809
53845.13744921324
56531.628514233875
49943.46020800195
52307.562005023894
53877.678904267865
59778.5911642291
55934.34893404773
60745.37887230664
65964.73137262162
67038.16440223463
64428.85097315679
61820.049328992274
59542.13217941945
56784.03097460551
56849.643061715375
60787.9500323355
63184.731495714084
57924.805860174514
63685.57970773565
55644.4864053702
64014.92823189224
56493.17996745943
63318.87854182318
58350.85208641383
58928.424983581564
63654.01551807935
60218.68150632682
63234.88696512315
58689.41688510965
60756.71295500011
49560.18698480322
50220.677723709705
49583.80095129633
62399.78648345714
54139.96822440186
49746.83402109477
54403.69589535725
54499.27981642633
62811.65331842846
62536.4882459868
56486.28204571753
58631.31293634295
57343.121819814456
54239.9468906219
62774.3563161341
63413.9013964634
63397.01462454475
63333.494723860844
55306.11134472412
63809.019232496496
59999.24831390865
63240.471256408295
59488.587195336615
63405.64727412368
63889.870135484416
97559.18396259447
95613.21156740836
105540.20161517573
111439.5663348727
85207.70113450279
92587.47153326716
81791.06206380596
110759.80865059629
128291.10772137833
120889.47484071093
64504.65696342818
57943.23096193624
51150.77357647913
52805.963642569266
54611.261548323666
52924.121271651755
55719.653577676385
52976.665324624555
55883.159067123146
61193.724323502654
50170.65731099407
55610.79887017405
53184.207281375835
55115.151387826016
59454.82307438724
55325.08083523188
60980.288977372074
80626.96150164866
85283.349711073
77019.21457957754
82823.7665696424
72748.85836940419
84322.14598887878
92452.95071496835
89586.12190857313
76307.26499312834
78962.63678301524
60310.17865463314
64944.7161203201
61083.88805587626
67236.41410212027
62251.12608792292
57184.8095700533
66770.45725791616
74198.12994693824
76417.87753477886
72618.72460423973
81601.38076544863
68962.45617364004
148772.24051190884
140625.79090962088
157568.03265851623
135932.658174399
152499.9734919712
163295.73108475434
184061.82406612992
178175.8219160466
174499.32296502838
174097.14211427522
136867.36728872883
139895.8031001982
149342.86480887813
139503.07964042356
162653.92766054135
159381.4235876344
214774.60045122803
209444.12396029895
200251.5733500845
203506.3623322987
191768.16922687864
182445.03875560444
177782.99261028372
176993.90934384766
213778.77274386564
230977.94415922125
362598.58893334056
356000.11632193736
326871.2651457734
454716.34225175646
210443.50861822383
58594.08638629967
63603.32591131756
58952.90134426507
58882.521046276226
63910.023947215246
63382.85908310178
58763.174124164216
63568.46722396356
63765.8048435849
64309.611284958824
63880.4618098557
61113.797731198756
56580.63666689522
59399.332476410586
63998.44340445471
63692.475834642755
58472.20555844125
63257.6675353234
63835.769360510916
59297.55305261636
56482.884843706655
58905.4725388157
61511.46455857092
69546.94505225435
63470.18946730488
58039.10241787505
63775.65810564112
63760.3079962372
58805.31348969496
63933.84934713373
64886.592015033704
63636.762194221024
63448.87728161986
63399.43055508304
63953.10824352098
60473.49364171514
63972.38061307033
64019.65263129807
60952.65009112479
63879.097753013935
60819.23279096379
63629.648993686664
78393.41043276033
72610.23675135693
72037.45459629734
77467.82360738354
74225.83352886236
83210.67967599405
87327.58023429311
68983.96738359262
62097.886893905
65460.53788507342
66672.75800045233
103321.1695176426
113413.22346277288
96343.16302806951
99377.95213204877
69166.99085616718
78203.30055005936
63731.26670707234
62443.26324615037
69185.96270307738
67540.18417165942
52866.25830422291
54985.64597284443
66477.62705633153
64141.91704662526
60267.37099796922
61529.473926959516
61040.871280409025
56774.726401891676
61175.657954523886
57712.190929699675
56069.54498467592
60801.03547036866
63636.04664768381
58950.745634260595
59279.078574507024
61498.75084141835
57589.476039221314
63263.77027713892
59538.14623702008
85338.59462237122
101401.55060953765
101856.77166941302
105731.69398478238
116904.0493886278
98390.8372138689
94739.29336124292
89549.25272856014
63023.66160911299
81495.58302854028
60509.04648752471
60325.48006574707
57432.65346936832
56296.45151881872
59506.34025002759
63362.19932325702
58816.19231540036
57508.70589742581
61230.15611900109
63890.65591699972
63638.53052519155
60795.98952033175
63446.77023328781
63976.151782360466
63820.66806565206
57502.76949627959
63654.87146963455
59911.71809446576
59808.991407890826
61786.520912681066
63638.84816865624
60695.1261779085
170623.04940168269
182765.23242998804
106943.22671878204
124858.59677190238
121814.19671701005
112886.48733374775
118035.1605878049
88954.1114123837
131077.76246168825
127822.8168068997
150954.7102469014
101587.24929516301
111214.31917129562
116915.11062297982
228494.13494732935
244290.1527428833
242475.90173392463
281606.9940129921
261380.87740794115
234417.83621600678
55125.3811016043
61000.50538927491
56903.71295456889
53431.93150552614
67538.11769840324
74684.83743454721
67099.27755271502
139380.66652770175
130480.18426568851
120721.24779896198
128548.96036843355
147065.7799626783
134155.85976509962
125620.19308422107
116914.01233916687
128311.60906162336
116036.94284278025
111797.24694319686
85821.8127719902
103185.55139307115
87438.65871045242
94581.83376842739
89886.350004612
108490.68781612278
90746.0150822748
110376.8104592947
98396.13607394035
83748.72503195833
75162.93129389164
111121.71014691926
104200.10148542137
104828.44395024213
97854.93443283296
105456.74342561126
115444.21094819656
112271.52178847698
92236.99495824413
87171.38189620587
81398.46737714019
65264.30344034641
61994.11877260608
75983.00864372529
77380.13768234431
69101.47477567177
92097.82384713384
82899.71260391324
77751.93851536834
99161.26055915968
97020.7121167764
90784.67554353889
88521.85656859272
188319.60851940446
130534.55218243455
113286.82535612889
122824.96637242415
136653.70841724874
142248.86222987244
161816.43708863226
191657.06323293236
225496.2243201312
209164.71977384697
176968.26094308612
212162.3273311444
166776.98397722127
150531.8881752016
150807.9977022327
135754.72202982404
512686.25544871314
872959.3477973122
664627.6446539453
873804.8148636268
382068.43964621966
458462.3513135927
298187.370392806
549307.1054104106
461967.4289029321
888793.0615748162
357401.8988403723
454365.7472561845
129901.00300994125
153207.23423544384
141351.88783066868
161875.004734255
197471.01034347303
188371.7002053943
157463.09117864835
177088.8923690311
147496.13323781695
135769.71246201266
669868.362705005
912402.6548800168
159485.43025478756
189681.6493823225
533921.7251515737
484018.4678959913
264839.46029471024
320805.83740209386
357871.49990523333
343103.1031514065
299330.297733947
258571.82877288997
239846.2885032256
271981.9473949292
310159.3564855466
312604.95054731856
209973.3814836191
223741.75525921083
259019.28904629112
293537.03117175464
335120.8181899422
257392.9815669796
306489.6546102237
235647.3694443706
257039.28414841503
276509.25453184254
278537.8878522712
227843.50624177247
63784.00945042885
60873.80246479396
61894.26089820321
64007.11123525717
62786.09567152404
58825.62605188711
60673.21971648501
63567.49507600351
63365.64219812529
61390.425107889765
63160.83707001137
59067.862805405086
62875.64878770236
62238.02013810434
62068.91079280717
57877.322098159064
60713.99877650875
63655.93938250998
60116.386047191976
63301.83897326532
60472.36245689016
62654.24598094625
63261.24505224636
61296.5398479549
63760.67670484372
63591.45276300625
63469.93389825383
61896.77705524173
62013.07590221321
63657.58193129051
63279.25359285951
60735.026577660516
62587.48288212654
62301.99188182343
59930.65863289449
62921.90751707561
61348.07952278972
63785.84764536407
62369.77982177125
61828.15503931456
57923.734335941794
62892.679518405894
62357.352264636764
61571.657582283246
63528.918193920275
59919.67731683778
63687.55667661736
63541.69547385858
60817.5741222173
61356.00903908362
62533.948821682854
62421.920772157086
62602.09823236424
62157.19437949715
107074.96834467768
101800.00675028212
117185.24685604572
105357.08380767994
93248.30801117967
163033.54255311182
159579.09974348012
243965.5680789358
189395.26715221297
228820.418748912
332847.5063462292
477426.5714797372
399069.91022219026
457407.61367320584
492109.5552834384
464028.1795684815
409705.38353541156
412356.5172439314
445425.36319760774
453250.48476785724
353071.4061854371
284407.62244178326
418484.5258385884
417656.20779974613
369939.4134591928
374675.76552099956
383382.78020839393
61736.47560130471
62755.27294914874
61542.367571389535
63089.04451418308
62555.99459642696
63003.24153717545
60673.42546847645
61791.952715220534
61166.63678040572
63335.0402140743
59638.84284050969
62484.99792784671
62494.73130441069
62658.39505649753
61824.901250050185
63584.71990515673
62094.51084035397
60197.06483368327
62923.531959094355
62921.89060875587
62453.44693903843
62612.78664530915
62749.99105129074
61601.857581607765
61379.300863053184
61463.928863904344
63163.39619166175
59726.94636066727
63007.026099739596
60187.85601769446
62847.368402163345
62021.486122687886
62986.21585463952
64100.265160277646
62919.0116078154
61634.87367240581
63357.363431239304
62003.04430447692
62233.865293903444
61737.19008468192
63740.483614889155
58659.704546489884
63920.84477181427
60256.80848919486
64315.614724222185
64385.83915808489
402724.9355260517
411815.31415986485
369298.85461064574
368026.3794412673
403233.89376690605
360859.98179895035
410149.44868002506
405178.9391276646
420345.1123119692
368948.10125225905
366638.9569205729
436586.9814093603
64211.09867149133
59121.21302683151
63261.84237735857
63778.77780798084
65605.9189297691
56940.4372611217
63847.33242224179
55735.85511948165
56792.856848749914
64463.82376598661
65627.12603618183
58893.36981069976
57743.62156963368
56730.18886807361
60751.07981291395
64050.4071138415
63583.923666822935
59827.33361794461
63681.396043337256
59223.41252696026
57817.69660820132
63839.643589328814
64971.47754354966
56754.231293333396
64244.298357714666
62907.52140810332
59867.33163039867
65409.93024168397
65657.97423862325
56014.7762743699
63222.92071532499
66555.12343895534
54644.54978742456
63719.76921878305
58375.71436258394
59733.223867114924
63830.745391395765
63656.84976190283
64598.46182564736
356510.1994787112
374385.17567376106
420681.0897579241
379043.95609532984
422390.11905647
381957.60293805203
367309.13846250187
433544.1049283508
372030.2403753699
450688.05150639144
450761.27566338034
371332.9739262715
463051.8048994912
62017.7668383804
54696.3355440975
55445.853821997516
56602.630997371736
64317.30481252786
66677.48622587194
65920.06937166944
53599.15716770037
65188.91814838031
55574.99347972885
54660.03877072755
55151.230613343985
58040.443717279784
56636.352929565095
64710.840049955164
64693.92441298392
55347.24624117141
64761.699750872336
54259.5488657201
64645.22705326429
65199.20281797713
64515.065922081594
56532.56545666681
65016.24535038687
62587.68862767054
62635.34669303649
62375.49123067687
52818.23522875335
53599.83707017263
66540.11984361424
62615.39397634553
65106.098759695764
63966.963967178315
53493.75756497201
54446.134221424756
66487.5171573787
371480.69375719514
404166.6190449728
412557.47187496204
449922.5891009026
381882.82549207145
463032.2363771884
358116.0185364455
476428.8596452686
416701.80238010973
478397.2259373511
420747.7815609172
433203.3510727346
489265.810321266
68739.94368448625
52643.45679114315
63731.49671901067
64208.7338569932
63011.605344433956
52300.67280933927
62811.257576844364
65454.62470882412
52320.616241985124
52600.62572041088
62919.55993977403
65166.895774424505
52926.755546011904
53470.884506879425
64314.58768225723
65929.40174447742
52631.825162480374
62708.732117253065
64059.66239684412
64716.78849273452
63896.28260355589
52240.910244465216
55377.75249903748
53327.076674917196
64385.11156798546
54231.873666025785
64064.87329929123
52837.89012783981
63675.41950939508
62192.19484383388
63510.62769738411
54137.62385562395
62385.06997082381
52284.73372047729
64566.8622835819
52550.974598097906
52355.36374340162
64571.47855970996
69051.07947994594
67170.41694029364
66049.53249007586
381305.6374852393
422255.9263864199
479097.78079571144
376461.36486596335
489563.14824045217
500651.4463903781
426131.971795827
498160.268551686
414667.70236671454
435758.5756588709
434488.3902816957
509131.8283496547
65401.30703256329
52539.96691806903
53119.81200286268
52273.95791829094
67033.9605073979
69609.01317001188
52347.98340339764
63663.33234623711
52265.851171441995
67050.34831165148
65499.23734852776
53270.92333692397
52480.36875105229
64527.919091263735
60955.660779465936
63067.80707024286
63737.173027460456
52566.48018899873
53388.51994273304
52274.61697304168
64807.474974570396
53152.70442560853
52535.064963271805
64262.56949530171
65746.59118364226
52514.26185370425
67014.24700401742
66189.29088732711
54825.06221894171
64808.30643142572
54087.33274510785
54254.839900346364
67307.1824023233
66561.37016327473
441042.7674628211
498780.2773142583
508693.10161803075
402112.0833204725
519438.73372090154
425092.93276560813
425351.72927251656
527974.2356447366
439351.6591031289
525029.5841026676
62295.31141069036
55022.71464571916
54025.59124094905
67126.00580462533
53061.63497306276
65525.75873220393
64396.24545677181
61585.569254184506
52663.45571549298
64462.534943368264
53316.01462736026
61637.71544285321
63255.2738794377
54345.64517132045
63688.96432810558
55778.40085587681
52625.76641447628
52414.69423935305
53287.587067718305
65188.822319895386
52519.22170722083
66953.88060808694
63645.763840584834
56227.78817297606
63765.46292730217
58226.63246763085
63658.37320877006
58123.45898208583
56834.87046012635
55450.095569022866
56772.95071547062
61796.508520653
64559.92979793114
65089.603908561956
65757.50996341702
64909.64646144044
63090.78069171549
60614.02603239535
64725.61462857296
63673.86210375927
58011.914609106665
65380.81929016372
58567.98355835356
63292.58764574303
65360.356905099245
64921.2253596825
65805.78664199746
65518.97875064797
56129.96203187749
66685.14961918449
57536.02560817449
64986.2302196089
65735.89304197152
57594.38529370284
64001.37273934579
65712.73783895784
58374.44832578315
67098.7120745353
58416.66617963283
62504.084757983306
60059.03103057024
62990.530865022774
64303.26337283586
59031.76017077974
64093.88476160637
60291.60666011988
62663.46349380793
56170.00133470145
63284.501160710875
520979.9217112434
540296.3202526728
427286.84189440927
434777.70227569086
541163.6118077487
412732.1893789752
412086.5023427975
544322.2997298208
424046.9506901941
545862.1218694856
390204.6233926043
432259.5622086832
554608.3538011272
62215.40743044925
56285.60635054818
62949.00579251617
54960.80582704332
58950.82745572528
57779.110042729546
66172.12263571515
67134.0517782072
63307.135526010985
57597.349776030554
62670.226669547235
60595.83721575205
68430.00499692693
64431.89653991488
54168.19018401579
66017.80858545018
64861.06785700394
66100.11884933994
55323.63577316484
67876.93280261541
63576.10498041299
66275.87516270712
52593.46085004026
63470.888652818605
54147.93777833919
53528.89920791013
66521.76003556656
59580.15104767264
67821.3909165204
67001.15923988943
59402.09040557153
64866.8782100444
64141.776470734476
65685.68422004179
66598.26809875938
58122.36771343825
63416.63033720834
55199.46301801867
64238.10349713339
65648.19279617492
56820.17100615095
67219.04230870692
60716.28325062596
62936.48012000359
60481.39594114676
63830.29654547302
59961.966459473035
64162.32735062383
63386.4658630324
54239.29070735111
60311.78656194806
60364.42687676151
62919.42997124972
60446.07734607568
64856.43284438888
64799.45471422037
57802.555737162256
65150.58906199218
60019.65157297023
58324.18054373373
63222.2955244821
60429.712673715454
55385.29349187076
60217.78554044672
55888.37754048717
63573.83355459104
59631.133502091274
62933.00183277636
57233.48162713034
64369.37250117588
60105.3864742766
65279.24967237964
64695.11543035354
59957.11649455354
65631.57432557769
58839.15110409347
65032.46973720865
59437.79628689902
61114.505932836364
65435.28307794809
61007.54640815608
61149.77773439628
63560.38627271331
64900.9816081526
64261.723978269314
64112.811223467324
63005.34928979855
61718.75673564629
60748.139010744555
59870.48693944234
55149.21467507244
60079.41793654861
62792.27425677757
59882.47196337405
64829.378442829606
64474.4813688343
62298.69709925884
59670.472248630365
52976.37923260518
60186.089089566376
63786.75275565731
63171.418114558444
64909.17925690464
58060.79816393483
64006.32391407047
65559.39671776489
59929.39193074164
65200.85561744565
65119.88464109066
55024.17079872021
63633.80038577038
65307.81911828284
57766.615650827094
64481.809017591055
57231.3731618584
59774.409025233246
55869.41453625632
65085.109853656984
65537.81911733291
59932.915860390516
65334.85672527184
62166.15945484459
64958.941124278135
61889.68738942828
65370.77672874427
65245.73368448516
63134.83217118285
64708.087803315495
63009.71416271716
65087.4684156664
65854.35666153725
60177.447491442035
63579.75332260843
63859.71044678801
58914.3258981956
61301.63835416373
60106.05941732028
62078.42785983903
65921.88099632386
66086.53818541442
60030.16140085347
64413.69930028982
65287.16208043334
63939.58159128523
60190.26686667837
63673.01313703595
65052.09985228413
65311.99368236377
63016.169531238396
58694.2367603045
65030.77904844269
61701.17932525821
65099.705900666435
64304.45175580389
64725.31657676005
63549.90957932405
58628.3583391908
63737.02876986925
64092.93551917604
64597.10143378798
58434.3850755745
65676.66726379869
64566.559500845
63182.8035523161
57980.300306783276
63598.410924286465
64859.10711395445
56744.31090405973
60571.44984148423
62902.48830397715
60082.11376061811
60560.38809943141
54937.04935675109
60116.82062607044
62949.4005124852
60028.121405427184
63280.9821795708
57506.78111038001
60206.55101738539
63030.596693490916
60182.27643596354
58041.17016268635
63535.70268395047
59602.07561488211
56873.66092806883
56533.46752678878
59248.503053029315
59402.01869852413
63337.7765378904
59850.21763379498
57724.18302022447
60184.34925976563
60248.37825311848
52956.155378141375
60627.79682901396
54972.39588624957
51941.133791553184
52488.15596218589
55101.85502307601
63890.535170556635
64853.55120977187
63164.780877283454
59900.71731243622
52700.755917333845
60148.904175586824
60008.75129022785
59419.31574398542
52176.222003299474
50614.395207242465
54572.37038439041
55423.7963598849
53904.898138847566
51196.07404788047
60081.02647771331
55730.95043048634
53181.72388349008
55175.78672202634
53311.960001621956
52422.889617034234
59804.75508526785
64893.96717310584
60294.84847433833
62791.39610768752
64246.30470609797
64521.543202846515
66017.4261712077
66312.07892956016
60966.60705363805
66892.37278141124
65012.46983187727
64867.856588149065
65277.55522115236
60588.592781570944
61792.05485693868
62680.788327475115
65602.70673010506
64032.319124683694
64275.05240103345
65453.22920378615
65758.03543775938
64974.26701621124
62894.01260630266
55442.75651568231
62066.053524272626
65094.56769111781
65283.307889097676
59857.66803626062
65660.07580548136
65032.06356629131
60479.09653633494
62046.69570652406
65710.51422188223
62159.507524719826
65209.844970369566
58046.99554921749
59344.52844098818
62925.55848427656
65617.9698961875
65375.401720752445
64600.98483461839
61404.26222997346
66496.35096078251
62438.78958718487
64489.593449645196
63412.78526439096
65102.23485902663
64538.715474032135
64949.327055393645
63413.31615334478
61759.43732576119
64314.40593795268
64066.428801502865
64422.90565498154
55740.749601177944
59696.90220907879
51701.842148866774
53741.86023777796
51856.67991921892
52397.40627693906
54465.62679013831
54943.27785797416
51769.80799788481
54772.64933365518
54613.51346762482
52757.534237235326
57593.762904552445
54294.55146960889
53265.946566800376
52566.23628976964
54336.8168987332
54151.2971274927
53825.004017974716
51644.738121754155
54561.265496355074
51516.38092969721
54947.170961325544
49875.58719251351
55649.49271245075
60049.720431517395
51710.25646715602
53405.68202679483
54318.18232646303
51894.30325861066
49883.37787914753
50757.699106903216
52626.17426879226
51812.82454913626
545056.324277745
582748.807560154
615760.6377425048
618877.2878429308
618146.2299270425
609675.0714095718
465544.478163634
556974.4067177474
455383.0974397206
556166.908904955
472399.1510213357
550352.2011862353
432075.57841214846
469699.40436048765
563752.0040771423
449057.880739662
570750.2132631142
67138.13869474146
66623.29315204783
61894.16518844272
64737.60888278589
64038.1006366096
616471.0693292215
615002.9909114917
586962.1601439663
618334.509925797
597962.7538022557
624034.5672611722
639131.1384447076
573141.1631189049
625371.3864244623
637064.4614290416
656976.5806478207
600852.8088555818
650553.3210781333
640552.5193661682
571379.9678242111
652507.294033252
561786.3015627617
599643.1104074159
664471.2578616142
659205.3682116846
57225.469304532606
60306.01765494173
63499.607992711026
60004.09650105362
63461.69293894289
58098.16302589014
65535.53783484705
58051.18551391356
60166.44651589632
55831.52228904248
55764.200089171034
55563.678221166345
52231.40191330221
51613.648265444994
61389.74995708608
64976.19249003743
64757.11302914883
64749.085241833585
57692.52221179655
58668.49393839749
61830.36281529446
65413.710067431755
63703.81476892863
64465.42970661172
65266.93925805903
65366.78373593435
65982.33278501291
59171.3883966925
65445.50368566232
63397.602586954534
60610.62331415131
63163.90381777362
65595.89541676469