<?xml version="1.0" encoding="UTF-8"?>
<VTKFile type="UnstructuredGrid" version="0.1" byte_order="LittleEndian">
<UnstructuredGrid>
<Piece NumberOfPoints="9766" NumberOfCells="50739">
<PointData>
<DataArray type="Float64" Name="von_Mises_&#x5e94;&#x529b;" Format="ascii">
653282.5261186626
902139.6515778352
916232.7914474625
948027.8638622841
770061.3158830089
611990.0641898272
639040.1580579687
620638.9278941883
713298.3591341783
997875.6000347539
470504.4936792263
315676.60804336425
287343.09263983666
609238.5259197595
317170.0443409595
470710.40299505315
425673.9916446609
530640.9689246663
810125.1485260763
445845.24834557547
359301.5842216924
222389.9943407042
364326.0851341173
426343.5601759537
342704.6275680802
1043752.8483182233
874344.9943646545
687808.5170014515
1136250.08165371
511188.38717178546
1145394.9261073745
507483.8841769477
428999.43584427296
487002.8052469744
538529.6628078243
1132695.4868816454
637845.3233865036
567624.5064181952
670387.6519044145
446627.5009892041
424510.5035138161
440867.2255964456
622710.55089103
433139.06864437845
417379.45082447864
535735.5592353533
456463.9560590193
512290.9833014848
375055.103813083
343678.88135302835
380748.6931967182
658476.3147894545
305317.35645730444
210670.8932890764
249273.15053489033
129085.65894426995
207290.76877999643
148597.0284182492
263075.4624723243
196658.73216980594
275023.0805847139
117232.93647222461
290740.73140474065
419934.5173907197
345314.6647708506
248089.9915191038
398089.4212070825
391603.76355869434
389636.456549245
380324.8586901395
365085.3900881022
378606.4840036169
931018.2619361235
561501.1364384562
658650.5257065578
922158.8163405295
581219.1967811355
1108877.7068824116
676871.546953912
1187593.413683748
484258.6741011108
1235065.5258694252
633385.7294525307
516780.64136679587
733328.8419433386
406946.5240261372
408279.54410937347
565941.3083238543
430682.0887519708
401008.78969453
458027.0940507796
402762.1468116189
389785.4194608382
651362.8502765984
967436.1750430416
1161513.472693186
588142.801131533
668939.4241598801
922869.1220884
725799.6527480653
610296.1377481319
450422.4712816016
505940.91440498777
448077.280763587
398904.42395753344
335403.2178552597
430926.1837200594
365405.45274353895
361727.66062820714
285008.5308798087
181818.1144980914
335635.9544336994
211602.7443364492
360354.1355943458
192251.92080546616
271227.107435577
336206.2040843745
358104.8992247828
295550.3545282158
178934.99545504202
289166.76359035395
168837.18907445844
341735.9484169439
208969.8804520834
152728.5324112567
127918.34350431814
94221.40949006061
233619.21505430122
280960.8267451007
177078.9339677515
291805.3165028489
397705.80054408475
391264.26062624477
391719.35557580646
398699.51025718055
380357.7440871474
377382.9081469676
370437.1646485683
346382.7154788195
340514.84470543714
339354.7769767221
356397.29515702213
325443.01895961043
411706.9251036285
668771.2590860772
448142.3337617802
678660.9445733086
972676.1965938637
466581.31228195893
563984.3275497134
1223443.5272446484
368617.6336509599
528367.9913288292
437212.614823408
915527.6737363434
648817.7944404128
681429.2911584657
571306.6384159619
365370.59059655474
969021.6468208008
1047253.3528569343
541681.1053194872
666357.8134748911
1027254.9731682647
1199016.8358628263
1210626.1405998054
597408.4414434057
1204321.3937934127
568659.085555044
499079.74811673595
1219977.447742483
580048.0429180757
1201367.303638519
621938.0345722367
1355313.7522921928
649033.4181641596
1219522.0485464705
566987.9385809337
552189.9472806257
487885.2644470864
554172.111511463
657251.5100721463
631811.4969030895
397443.2415993594
402177.690499462
431514.7545475581
422785.05657169956
532577.7591884444
723201.535173181
485485.84845557634
560465.1291745871
985291.5184762904
444845.5899988337
337336.3009830112
216070.23676191235
321524.68052795803
205335.6947621406
105497.28922878897
150334.69643178416
85608.10186550477
150790.86173142333
205207.75350044167
288479.9977041943
256638.5779248331
239684.23859826842
321962.1314403099
379069.6933995144
321884.8309099975
562973.3721529423
473209.64270283264
836573.2654069912
423719.55017854046
393454.99186412717
385351.216515018
354886.81208360655
334064.51848808414
280649.784709992
296549.98857141705
522731.1966938138
536981.0518198636
644690.9370614092
327876.8753608069
415345.0180903253
600887.8192356935
471962.4330671106
797638.3544523419
529325.0992835606
535595.3674558814
420069.43913847656
416616.41655942437
397610.1342641195
1029864.0277579474
1001850.7214352209
559217.3556204676
1204648.9746130297
1333000.690779984
649577.9871683278
581011.3549518691
808266.9159153048
1391415.6797215978
639368.3756292331
734921.1308295227
1330764.194714565
1217080.9056689586
1275628.6079496783
563417.1051194434
688207.0711889081
552707.3764548139
468263.92032136035
432226.7745917697
290569.71642472566
190579.89779103766
643487.5589279734
460257.47056179785
321309.05080749525
276841.6734751908
177181.52790504097
200204.60975336048
131156.4541890514
83688.90281574518
105681.77127131337
139107.4108605678
161498.80934493945
166291.71775555908
184187.23440858867
211131.45500551505
183383.86993472924
257176.93748347633
266895.7262207809
234225.2491274445
290105.21611313766
335203.3647458814
194873.0427350214
352791.9717124448
421789.45267308666
589076.2644200012
304558.36030465283
603553.1149459822
391928.6367287824
381131.6544707892
597552.1236446905
320175.546469747
542871.9617161222
1007963.535320307
944108.5787283462
388136.44570251746
353676.3992269675
364773.9492382586
350794.06232648133
320546.0294170969
312554.4573315081
358917.1542560533
538614.1806575943
1183102.1653127524
623920.8194424693
1237060.8541882725
1329588.5779894122
585725.6606863964
1388148.4791985734
641886.9387667998
1158587.498450446
641064.5539759324
569054.106624537
1350527.2444379588
594394.3995815417
612232.5394055519
549226.4142816995
640429.6495101254
378954.60237007384
336872.9849019158
609562.6408821562
340375.052199155
254251.2312035363
156741.2802008313
176827.46849992493
295370.80343640567
87438.8769566895
73549.25726689785
139913.10550449762
140236.76068155284
158061.65080963055
245741.85441640738
177223.81692177657
142459.4056055671
222091.35298628538
138415.65776277648
187732.87993449203
287296.8538958739
313473.79097070976
145564.42311150624
555086.4997730323
951385.3564321846
543551.6171496861
753114.2683594296
453113.15166269674
518220.4044155157
515844.3820820735
1041040.8397248916
476151.6757722879
399326.5621968199
340719.001198808
590005.6953942215
774875.5581548194
1365651.795012869
1247018.2032275137
616843.1030390754
569959.6730231976
550987.1594534075
560616.2006590875
304454.27171249886
143834.26694611768
292514.0908920222
300010.40095229965
180943.3095194152
359038.56345073873
411970.82878219686
583013.778335017
434533.0223203696
119537.43439419687
256606.7865017605
280736.9451255445
664935.6860763521
490502.97358272114
306437.81367900444
300258.9153030838
303242.4754954315
316173.01763992786
282227.6388280125
289969.4263373379
294697.2572834797
293858.1463455228
286000.691769514
990350.1647345861
719052.8817084199
1264906.9869997585
1180425.17080124
747776.1260047095
1357297.78825587
737896.7921145875
1335852.0841430568
1197200.951160769
665695.5424501338
626753.2168048454
268463.3233665893
273268.00277215557
299212.4886390258
176888.92138434784
214121.07575358558
99903.13172416031
165615.6159520389
288857.44105277304
70610.58033074939
80781.23369530046
55221.42456691559
156294.4395534249
154729.77362513798
87986.12475977735
231041.06522233583
185415.52642756182
275628.33621230396
104138.58931992044
72179.46941417972
62814.74500204433
148931.05899764318
136867.49281882888
78430.7039280098
137802.2453235798
159412.26781512008
152413.33031472805
204071.637711415
143734.64499396944
487634.9014169392
356726.58326857403
515785.14266700187
128863.04326368337
230849.16110032657
274435.4062553588
277514.91644524847
416770.30675906426
1016055.6739247679
115872.43504412573
315878.99225302367
518452.1485439004
522739.81800887757
1162421.9243282035
598082.3072992001
945158.4020900845
536302.0477602982
485997.6024469189
921948.8669145404
330192.41058996925
362290.2441719107
384486.3833344714
355629.98802124104
416096.6549456653
408520.1174020505
827469.2234913656
348229.76120450645
249508.9454249278
255606.19893560294
263467.54196030746
271488.0871645223
263952.73728985316
246763.2275155802
254819.2416588678
270301.99211221456
255548.08473540877
223318.80674725075
238726.71769917215
236487.6377196057
213554.560691117
220899.69371730884
229494.3329963889
246469.17368653024
1195211.465522171
853216.016146971
1243335.5608819523
1417893.2268347505
890637.5535385043
1285723.822019446
590963.7398862643
584117.4896573111
483353.3651483181
613587.2175689148
623967.3866516916
224914.78617341135
224285.91046913993
228877.11662608784
241520.42191242287
559489.8614691427
353731.75228127214
563486.8722099089
828203.7966774579
179937.54093061297
474299.77371561324
531148.1180361516
449075.5253142956
365173.3704343736
316256.22038890125
310037.0670072511
134579.93110519715
114825.23898478562
161916.35194722805
167791.80453759397
214917.92009054078
247820.32951879836
138570.3814657746
100016.52886300221
211382.70812391047
283800.3043648108
147260.2358013671
154647.40414423507
150709.75068913458
183823.1143625729
176029.47419803112
204663.4067993663
314785.15227544215
269021.4797504405
246500.13714995258
127960.95248266733
342467.667879755
600251.2465265087
390907.7843752994
358785.25235268014
319557.3825323072
139642.43485193266
568822.1262832003
582004.2047975021
555099.0229349568
423712.05613206985
654205.3539886111
864799.1437435923
444625.85632898356
449587.1163607009
870679.4395810154
550113.318869191
614816.4451470466
1135979.0635826995
969222.4972555771
568589.4867883503
528059.5972226466
1203810.8559595516
599322.4508008105
667681.4916239961
1182944.7955043965
607136.4164702782
481663.9352437895
594632.5627046918
1251021.2669509018
686629.2729344092
1288573.7185723356
1266914.1080505745
599528.2170850477
1160907.9081988602
508766.1731294658
584489.0787046489
600286.9686424631
355436.8434248754
371588.3522189532
690716.8565720336
346762.38366157026
175741.09967448856
486733.449815576
381929.75532163685
731340.6299737766
467055.8991973114
698463.6233526884
800564.8576473965
356549.9864933361
515721.4664412906
788685.4598383697
381295.0072772171
415916.4991903958
393643.84265797515
445537.1650722286
771508.4985469438
726210.386496825
774923.1770399286
1175771.6085394197
1208130.4807237794
833214.8935904969
540755.5090830489
659762.2801142097
642139.7853701996
614586.6510957963
757198.1503499396
780472.0280171364
1085928.719238309
949716.5133952068
666038.3208997885
490670.34920959926
503842.89026752603
825692.520968352
1302579.248475207
760851.7597428386
1279103.8818452198
769280.1576224483
1313464.6314977221
1309189.2586878072
705351.3319480473
994800.1523951809
929119.7086014986
1328788.192200661
687676.1444527216
1640920.573272092
810573.744052563
1607771.816144935
1066696.8464332512
1810005.2662972435
1043399.1231787064
1371572.2787618786
1092431.68686339
1591696.6345876174
1802530.3333612226
1023428.0082280547
1377668.6149098394
1025652.4821446482
850451.2489899342
203472.92512514498
194897.812681505
196395.80915421317
184048.78290394254
158119.38711364396
170938.22297460138
160151.83845139807
148790.0364647113
167621.70447857256
144270.56626979844
210395.4649081729
197623.37911820956
200280.83878222134
200598.00051260562
218837.2844978249
199373.03721610038
200710.13250104725
180288.24255756068
180951.79879422675
193705.14222317186
199539.14454412894
139350.51516852004
144198.0707139256
151760.63555862295
154855.03318976276
129640.14509666232
238259.37939506298
139528.28850312578
204110.65618669128
122387.72041633666
113449.66533306452
121700.48787222024
692469.1399282783
705504.4520783634
351315.9294579243
485181.667393653
323414.2476384237
343909.7996101256
430859.30350167194
507273.03289290535
467964.7852952231
630108.7224724803
545885.1634847054
254442.82880757877
334536.59261264297
489233.79174685077
273588.63059842703
482014.1985519462
534082.7439940748
176887.23262372924
202655.37372908572
327573.41411803226
297757.8845083904
359475.6088374884
151980.49871810173
322157.2961523464
393067.80530716
195874.30717788555
228232.21574394766
600256.9999081182
578562.6063304619
819880.5905528163
1371524.8288532374
1097658.063103986
334847.0474519826
155010.93490802872
676078.2036382791
471322.6253921078
692118.4976738152
656189.8185817726
438310.36035558896
367153.94634681806
383290.0209264259
158299.15707884764
359012.162636311
147806.46415190518
556979.1848434575
1033016.5408307819
574483.7302780038
1014952.3777168136
517908.8422104704
996805.6344850832
467657.1200493307
635637.3644441093
455442.29415994725
495575.56210722454
643805.5362335715
980570.1310097625
570680.8403942634
941867.6145176514
1106605.563927334
1193053.7130242304
558346.1822156147
986611.2857098948
604381.4390656276
829032.9097238402
1357406.9310438873
1170589.42112237
1078880.4983755564
557129.448855051
550563.7297526702
1200427.214754673
1277620.6161837045
640132.995313855
576026.7564285017
663161.1126694583
1356267.752610265
1249193.469536001
587024.6197267956
556020.7215259626
461679.85899202793
605129.1496921296
688488.2812075864
1319192.4664421473
902254.010120418
725588.6391359542
745257.9203461376
1042058.7105627957
1614342.9658844897
1615781.2254324756
1727145.730653226
1586586.98448167
797449.4091346128
695931.0626994956
1362216.843255159
1400424.0158538937
1513350.5858432082
1003559.7808543905
1463971.1805290058
1573397.6786110643
772226.7234166779
1638248.6657981465
787537.6830665014
654329.9605272877
725193.5859182416
763802.3635660344
674345.6744452281
985947.0742386589
842811.1222117612
1402218.5268156305
883167.7862165115
1102287.9337470562
787220.2710732059
764265.9686403096
872208.8766140374
1582639.8945666163
1242833.9431102504
716512.3948160647
678583.180532453
833315.9490658653
624727.0312122322
660606.6761444266
693997.281166048
135178.45422108655
135206.1597941879
180452.37702355284
179377.15499337084
174748.60384078792
167682.03375415548
131429.82151770874
180266.95223946555
169534.51151226685
180703.47169298487
182744.6258518042
159308.86879064867
159189.54194358824
161666.90799397868
183385.2187743266
156203.1232855046
143296.47249865442
147462.62676316412
138436.09038237427
141459.64763467017
141630.7664559544
149135.37035138017
163954.2700117246
156101.19208966792
164167.68764363372
164928.91420099704
170550.0798707462
125516.18629338992
138446.35056243194
110240.35874467497
107403.35224021322
110384.3901344776
119095.19398293691
126392.50303333628
127855.5102446518
123469.87501616565
680134.5514472708
110016.8158606873
105507.45237455866
127253.9717177102
122390.6055138532
116821.12380989597
121284.34057376027
100337.74637497745
100858.30781363042
95435.599969916
93983.87909003618
96940.91235434673
51941.605248264015
52976.212899289785
53299.279351738696
55483.997246101484
51890.551136300484
51833.13367159163
51709.234413330414
50966.14130156389
51991.456445999764
51959.43099283754
52787.23736502625
50890.26843489347
52601.687449266195
51116.83192572344
51982.2348283377
54071.32703070382
50723.82326748504
50232.0901092125
51262.88034718475
53804.23173098236
576576.7351191802
547261.9303133904
480128.7989277057
566436.2303297275
627061.2360486982
589247.3844249409
495690.4734813071
405892.6740997185
444156.9217873234
516965.4701294075
721364.9702213721
725814.6821813007
838305.7262981704
1405474.3178664674
1344892.2245132623
1046432.4510923905
515756.61289508623
691510.2246291742
1278798.5482092483
1238945.4983856424
563753.408849286
1233329.9259103131
1319987.6759967806
1303207.3857244032
747047.4556656796
1199676.4960455124
589541.7562712937
572475.4237030006
556522.729829896
603936.7163659614
475203.99436313024
493279.1868683577
537131.40918011
1163783.0316133604
1332479.3338191067
744684.8111315138
609113.4701881394
613410.7028919895
1397393.1103934974
650970.961301777
673691.6437526426
581119.2238521677
1384823.0953594397
684474.3725960812
645787.5321021887
663677.1013611716
628913.1663895783
491194.96835516574
460142.9580562015
659089.7353886403
592977.0266252981
621076.9689179112
709372.5735439105
810582.2975873334
1586511.560280216
1673102.336504409
724199.6255374419
1039365.2350212157
915676.1964515483
666804.1398569546
1589709.5587431903
865702.2775297044
734109.888702395
775775.1610552808
964917.607077942
656189.4283293557
612783.7934568881
640046.7758999813
653082.2576752435
655698.736441192
735204.0744210284
661440.347609307
695415.8111139932
601152.7439069892
632357.1406934327
571281.9678834052
605959.2630448244
89797.64556127849
86122.93257406719
84976.5253521628
130687.88503011703
114961.74160327634
112928.205151003
107483.02467476422
149353.3697404934
123304.93960877921
138685.27854327502
135759.60369920812
132401.73110857818
145345.7102882779
149999.29752348078
149106.59666789533
109013.71339509533
110266.14773769073
108843.54963180237
110000.81831700049
103930.06630707592
100753.45527190722
98974.30117820836
650426.59740751
97437.26633327489
97453.16773795386
100379.00206314046
97057.83105139468
93872.35050668921
91259.8098362212
87101.160553421
90772.5275601947
84442.7455517885
80411.79004528634
80411.78145851077
78034.38429814023
76244.44073088867
77206.97570266742
60505.36112287476
62410.46082335568
62645.31657677578
68783.55823655953
56881.575513810734
57271.54886882972
65681.95243439153
60084.45714156907
55988.78741173533
54141.7764061036
56377.19084570156
53369.819419478044
52072.3048564511
51488.67252658236
51681.04167126818
51163.72812687547
51810.58548804961
52155.01494780005
50620.24807149717
51975.37457889951
52159.82561528901
52730.6612343821
51894.05224097119
51269.23035073928
51754.75936264843
51794.70770805621
51123.52470990521
51962.84138094257
51845.77808848885
52734.65264805234
52356.79107222876
51996.000085879656
51561.7316133008
585913.040583199
638067.0632833858
562928.4398365295
619572.4908729543
506450.5009180699
524438.1583845243
627730.8532289788
639992.5599490324
552670.8675123223
50842.182836061365
50233.770421226385
52524.60565953359
50456.614497414084
50899.071541091
50820.347960439234
54265.9335435047
52311.46334988521
55163.874575498034
53782.28297303095
53792.573811581016
50306.60415821373
50790.80680076927
51433.63979684739
49961.266296648384
54741.47444457471
53515.0581813211
51155.220915569946
51329.90728709496
54819.40857126342
54961.62560828545
53975.6221175699
51790.40231249171
51780.53644426185
51053.37242685165
55822.535446467926
55048.24756531228
50906.816762327595
55210.87146564061
60200.173876575995
51474.50224615389
590364.1540625568
525841.8512602721
644709.171951484
641799.7660482001
579981.5429955778
636618.4384840963
634849.471760405
584866.0505039551
557100.7773494327
69404.86771969282
72658.44378680071
73542.87509680887
82440.47167270628
89029.47701758867
102267.41300757919
96581.04927128354
94967.10056120591
102899.09206014652
104559.17184808796
108731.11928433778
110096.02144129541
114596.74957378402
121990.35522330768
125076.45272110839
128579.74806733809
118305.57121153771
130658.71075205275
115982.88557679224
93454.88747683633
89969.93570085792
90328.86914842065
554849.7641646945
568005.3903482421
635993.8325720555
75935.74862437858
71644.8317553733
84822.09134124497
81973.11218791212
80731.81323240079
83136.84569529339
82654.26384662172
51846.6292292144
50041.38223652541
51886.91926664355
53519.353892713814
49417.98304737245
50947.98760806873
78703.49121329554
76789.23035986356
77048.23428795626
73293.91217969466
64854.79663939155
68316.78443884997
69235.57476667374
71368.57272636169
51806.21486458774
51175.66690188994
52279.48815630274
51959.23622343406
51942.05893508011
53077.777470893445
50715.17844062532
52264.64189911468
51900.95148120022
60125.58578711588
61555.16172954218
54061.28534372442
55938.6022232391
51301.84213464754
52172.681252186136
53708.08749179678
54590.85053133172
53792.56864028133
50216.797364738195
51158.07039476891
53671.307946415014
50060.16284825975
53875.09072630194
49961.39176678187
52161.867646297316
50823.57674552645
53831.20932125652
55065.757065206744
53984.57036941858
55136.514084420174
52798.68633295411
55329.834283060976
52731.25029621387
49937.29947321432
506300.54117859696
639895.583892554
515163.23465491796
644984.9846646448
557985.9245509104
644703.5690354703
511535.61495020875
655655.6385356042
49969.70141171398
59429.088213301395
52114.38943595227
50562.547655957685
60432.30222389669
51427.442595376
55576.55098199647
60380.34820688392
60205.20222773624
51384.94588772958
56043.06613006897
59702.92226816877
51746.092913622735
59856.17360331297
59757.964657246404
56007.10435704484
51851.91214822479
59805.90444821359
60117.30472945699
52751.563073705955
56177.68847940099
60290.805122652375
59858.62568717093
57350.71652248761
63097.609320718046
51956.32306641801
53429.344245799766
63675.60512818376
54984.65626521211
559989.8951270685
624717.6078304705
534138.9727225895
67107.3821368616
93208.28916921197
92521.79364126964
97757.45520529388
98250.83903248017
102785.28091779903
98698.40570884473
87318.94701972652
81638.04954577038
80691.74435411753
86715.59108668362
85394.27080129454
87358.41846717987
83563.81951130427
81399.46895529107
82664.8346823995
88370.87210660503
88100.19065149654
92639.72959358961
103991.59554634997
93278.64099988836
512092.0423933272
631386.4673879754
69898.99131433778
56374.41925520506
53116.14467281748
67020.10144868212
66289.5838470863
79828.1276823624
75907.06849305336
75496.18449552899
78016.3435302593
79895.22889410853
76327.55104594985
65807.36350252062
69864.01774630588
74637.7775090312
67048.98830341763
72639.54704882261
76626.82508356142
72779.86710030666
70290.46723777632
68877.18865739416
71962.27607602766
72980.74364661764
53887.57729651477
59594.765866488895
64687.93076061364
63656.34722979834
60395.21191398314
57262.16365031407
56235.564493846345
50350.323188046146
53002.07669802744
53609.46657616347
56201.4089984874
52032.99317328558
53634.03624069987
51934.569246947
52332.37056665332
51149.593407675224
51727.1492647025
52625.47096002286
52389.062195492166
51758.49838504514
50816.676672014466
51724.45873133774
54692.54251205065
51929.37511683607
55436.301798514796
54474.200867171756
50398.93411451467
49981.173874329375
49477.10292449146
50526.308973969986
49569.780168591715
50260.82005239508
59783.36267621204
60192.183723702794
50512.645448377116
55295.06820756988
53340.614142646045
59397.65181131855
50785.062976817826
60170.43641775984
59970.88774555537
53363.68510801552
53241.32803774375
60371.61362514318
59854.82833476149
59723.7374385521
50342.191089482585
50903.99591882564
54718.48222643577
52357.245468173205
53271.75973507174
55435.0813929609
519565.1926185607
641482.5131352592
639224.9263503097
504774.7158864155
525269.4496812928
651197.312270908
649241.2337753131
521955.34296337527
529098.2007460411
645821.2885407981
557940.2391083862
643303.8615180554
621048.3010954759
547472.526648252
494586.3139179842
57598.70359773651
63043.715460270825
63076.110862403555
63574.04021125995
55913.56547381516
56340.065472816874
63880.82532572871
60266.54003865597
62800.93112415728
63259.647663579424
62825.69167297323
59317.84249620675
63678.44700095975
59333.95493491295
56931.00591721116
62986.84550012367
59377.786804005475
63440.12861918295
60594.44446571682
54224.76567062012
63675.08016907773
55300.256973634896
64439.46851279337
57627.6043535703
64831.66560907126
62057.79861439163
75362.3052918876
72102.93090791054
79231.77952274466
83799.74874209266
84064.92001752954
75879.80091064908
75977.60611261136
52667.41877876221
51189.73512486774
53288.698297871124
54148.01949374782
55055.36796650402
57008.55635059071
52005.93628983867
50820.1239316384
52376.80775015365
51819.266288382736
51818.09351591273
52051.95477979861
50962.381122183244
52812.143708196694
51705.79458100832
52171.45251655311
54198.67695477217
58742.99935797508
61133.85072879601
56063.63147102581
60456.939754627274
55286.09762792632
59278.450325982034
55568.13618201061
61531.60811221734
62198.990963797965
51612.41128079992
53997.17959020932
53008.32593418534
51983.50719458612
52801.80029156224
51007.854700123775
51887.09809468452
51845.00116148552
53624.03387487835
50894.83358053825
51652.43904178237
51827.417046184215
52765.06250606644
50575.74071066854
52104.11584029304
52757.5640852765
51197.01807662487
54711.46632831889
56822.0092629916
57581.08508788631
60660.61192301069
72151.9478518556
68378.24630916942
54535.54312904263
54607.306696816886
52939.1341358689
58072.429622187614
60582.33603192188
70412.90529897252
68330.40721843779
71140.89365899329
66597.09114333325
64745.952661275485
59293.68051726386
64191.425969808864
63967.187044484446
65430.193234641854
66021.47906763393
50942.13275075315
51759.438127006644
52050.79724473781
52632.41187455694
52200.07834940651
54811.61201491379
53458.48570020055
53091.043241937565
51857.98195659075
52631.22551342562
51605.31788101218
50824.60415317639
51755.184772845896
52014.939089175605
51314.68472367509
51831.03868570106
52083.16738847491
50301.4180739643
51452.35456651267
51952.652761863166
51906.21689711941
51821.193365463754
50637.36219261816
53911.506526111356
49484.37725739282
51260.76122019776
54312.336587002006
55335.90716410501
51083.831154558065
55052.67985501202
53713.59477852977
51069.33067235208
54571.21309381245
50596.9345478223
53644.26933637735
51746.3089572917
55434.307295465194
52100.90027182601
49927.528819377
50431.9117381631
50804.40662620415
51808.83992709682
60099.206488202384
56333.58238725569
59754.70023542813
54205.03165444138
55151.451345101355
52503.98828008478
49767.266237633194
50943.47393533843
51694.45305015182
60213.252607059876
53276.05026748118
60036.80038363629
57585.45779100272
54931.153230541946
60266.76798601463
63079.681446309565
63935.471468271324
57255.509702834366
57492.403770290846
62286.63908065677
62766.81363940432
63162.11925037617
58729.324850387085
63285.54872234557
62731.926345484164
58303.14324578938
63073.1069578081
60322.13570712162
57859.2665026847
56879.9897577739
623342.5182727872
643311.3009738633
500146.9226496226
614142.3419460324
612925.7808223846
487613.767663056
601090.606219982
490299.3199884535
461907.7730357181
582539.7637685495
510897.0716647635
496489.3224964942
58433.50045883193
64740.86636888075
64696.59809880073
65142.275112470146
59114.60682568587
61756.00594189483
64682.228780577185
64399.15482583246
64563.75033789751
64818.153936427356
59464.61391982188
64869.315826474114
57830.45238612519
62110.54756838397
64880.621738282534
60902.3530764223
64419.91578337193
59749.217583573154
60185.67493030649
64818.39224479356
65612.9522541509
51089.47837768158
53573.811484817765
51492.328798888964
54319.78977414348
50393.11384382816
49543.60298398816
64067.984633627835
65542.64290008962
63437.23805391208
59082.87959401331
62054.35459738168
62867.76694397297
68875.42330022727
62940.38754255049
55932.8429847533
60216.79851365507
57682.753569147186
53588.93055785277
66385.88315851302
68746.0648177217
62180.50293455762
57356.31649885051
52519.73435480177
50386.29351577357
51628.24519501662
51953.63235503433
55651.4776475965
50320.23706644323
50363.314139508766
52593.0128610261
52038.11226382531
55670.081349795575
50655.846520668296
53888.440056271545
50619.11635336863
54767.09052435584
50589.37843507824
51892.72770893122
52157.691765591524
51826.201542132585
50484.01117058104
54152.2177505913
55060.850055093186
51801.27171865607
50478.03084315607
52590.94063045587
56035.39435795486
57060.96388726598
50203.79866948572
50584.148941394444
52825.41948619159
54906.260708956834
57563.76550286086
54863.10463793421
58263.183788903785
56449.75124352319
57831.13539412774
55466.475714980836
61430.60723871212
52003.48617888366
50460.919816868074
53843.22114224513
50494.436429414774
50262.390207385586
52761.7832058142
53368.400642456974
54062.09554393165
57306.15987169184
61840.833724243486
60370.06687425523
60053.016008705104
60486.70117216367
49824.91685225081
51794.456578396814
55185.94884944578
53874.255280720594
53071.61650107253
54665.5314976419
50741.355180695406
60280.87955393928
60080.5340721521
53079.24881107069
49183.71763779106
50345.78036356922
50377.0289586431
53821.8891472868
52285.9761357105
54975.92691054575
51999.25966449878
60402.01834754069
60088.83961581871
51245.79281619774
59871.24104025708
60043.63201721056
60004.26596226605
50886.98302666782
60003.8782416905
57680.78543217598
55899.73447514803
54817.41349145263
55394.57389437245
62794.366656635255
63347.40680834696
53934.943700451055
56198.2376534175
52945.91922275667
52557.89903914381
54784.547234395926
63007.15529160116
63624.98317542335
59279.76461586246
53474.465311697706
63408.42509667611
63919.234230681046
59637.48468116131
64054.16111526737
64478.301991211556
64514.35312355064
60714.88357118984
55665.30817655568
64338.61441260356
59211.16704189385
64393.56882437915
64854.14815862952
58407.57337563686
64570.834374611266
59127.83233708954
57955.909853139616
64852.7205341712
58188.24802344452
60858.193322110244
60533.253966644035
60327.873647688655
585317.1880251304
566194.578565294
528188.8066522826
595884.1010836927
456117.0433851151
602213.6524509238
464958.20668276347
414504.9879569745
566805.0650903655
472754.1189070411
479372.2249424391
462336.21978713793
558634.6664674648
552636.9487786259
65271.93652262693
62472.00013035504
64634.45965533783
65406.93764747508
57504.181988761906
62707.377471517764
65151.01683230628
65143.438906064795
60680.353751356975
64792.63688837125
62376.85299317078
62809.89499936887
64123.87927539048
57649.34662942566
54630.931292601184
55350.68356181686
50788.834502834994
53556.43281256993
59577.61023470019
59816.30434238074
51249.02324658635
52179.679470308656
60425.18050433944
63218.73389325749
64037.241588993624
54785.30622691477
59642.309803645825
59368.55275512289
57039.26047883191
62943.108267339216
52641.04025145155
63124.88434346386
63038.61625230278
55003.629588222495