<?xml version="1.0" encoding="UTF-8"?>
<VTKFile type="UnstructuredGrid" version="0.1" byte_order="LittleEndian">
<UnstructuredGrid>
<Piece NumberOfPoints="9459" NumberOfCells="47754">
<PointData>
<DataArray type="Float64" Name="von_Mises_&#x5e94;&#x529b;" Format="ascii">
29203.355841662535
29252.57972803173
25443.158681341523
25474.482801023776
25422.825456268874
25518.515194249998
25553.181980047357
29789.477626272095
29835.155171150695
25553.696223843945
25673.604887976562
30689.039942585467
30845.15831921943
25791.432784810368
30556.72939030486
25780.646774858702
28299.587722474913
25961.6322569298
30665.712875770638
26166.891579845153
31768.990331652156
26180.778167232842
31648.11974611285
30778.783686198087
26451.03074375555
26759.36050533342
33060.21304116051
32918.96605747332
26768.55163726947
32164.045975837365
27101.343661529718
27681.1317319185
34821.326386235174
27639.306479668914
34671.50275967106
35211.43092556119
35311.353110637836
28474.751148350155
28909.57387030064
35756.81763212282
36654.85425685546
28925.762088977568
36613.38760608131
29829.55891236062
37009.826597294494
30165.779060514487
30582.958967171948
38698.569189467125
30625.01579006445
38488.7987742614
38023.270783015745
38497.66876615847
31841.163155746617
37771.82556534861
31625.575306095085
32713.371147981718
39897.79726750077
38302.981401696394
33397.076349227245
32641.234892538156
39943.35322629538
33881.46950182799
40778.60004469185
38229.714904890774
38577.372245420476
34508.65607404703
39810.52837085261
38041.75084737868
38893.395094391984
38417.7261934324
35515.37397499465
38599.02115534427
35723.25861605632
40899.440730270006
34521.70528656907
41023.85256973975
38939.025571027276
35818.911422975114
41370.116133747855
36311.2593179143
37000.86255718462
39088.14554244234
36644.94206278435
39311.69940108957
40490.94319129902
37153.62381289953
36292.39506627265
41483.04804952511
914030.8776979153
887809.3109934817
991779.2583156318
990371.6145329446
991777.3264309425
990591.2562989848
916037.541707773
986999.3343811001
41715.057793225285
41655.9817595439
37321.28064385778
37844.95338350514
42512.62409269145
39926.167823997115
38071.446516821845
38507.701800027804
40805.65486049391
37969.94946480395
41765.70640369968
40664.18565763764
38446.901705059056
41155.5574505292
37865.71693775141
41103.87466216355
41614.20416661989
900112.8281737755
906902.7216658553
990448.3062481888
987320.2966596773
875632.3185841392
985116.4124444942
41603.44308996656
41018.53595015168
38841.686513468725
39523.06296250078
39232.83273200777
41549.10624207387
39093.59262977147
41139.78888988561
40443.275571628976
38715.44195956211
39385.55748318505
41186.41387750457
38955.426967880216
41192.5133518516
41339.267144989935
38787.686513579596
40983.57718761425
39185.713477224046
41599.47870722865
880121.4148883997
895250.1735960953
986320.8468116414
983889.7172788951
855181.557569503
980159.6336952943
40305.256476419745
39596.130672677486
39733.8774361503
39721.940557616326
40896.91543824253
39724.458477727196
41057.5912950175
40599.09111487958
40156.717653661646
39579.70976303072
40189.08384701075
39715.94700758675
40652.797936990726
39801.07293962674
41240.220329192045
39552.45427511935
40577.18586178572
39742.92789873751
40525.78800809757
40688.468886410046
39707.11354996814
39563.17108530238
40429.4718938373
41459.012862124575
849697.3362798843
869757.7726255817
981088.7777028029
972140.7874422204
820671.4058378331
959683.1785984944
40416.90234773154
39587.645562997
39655.95354257219
39382.694932287675
38589.30831017485
38459.58383072174
39031.767985799954
39179.22963538297
39786.38810491958
40197.99835106799
39759.99642983802
39727.761118152695
39540.14382272029
41030.48282663776
39896.64549998988
39606.124862928344
39490.19431550928
40075.09543502019
39922.69225962711
39625.5883621612
40217.06765530968
39532.55504851892
40091.57978091891
39363.66743458156
40202.33457120193
38068.64150789621
37985.29821237566
38987.85265257945
39214.937953345594
37473.33138553679
37471.60846407924
803914.5676457065
846913.931438844
971819.0996138934
825971.6589949232
966075.1174526317
845401.6612413283
941607.0212092429
769644.7384956549
36819.7734123535
36511.440236100185
39191.11328492997
39183.79439801936
38847.499982641064
38928.21043334792
38836.19217183706
37569.80256834479
38001.56577310597
36958.59155622538
38610.025111718634
38976.29125878734
38600.905187932556
39311.315543830126
39056.63154141904
39233.57066994463
39531.21338405071
39576.807248998746
39037.85482937929
39746.49268706397
39259.13887189077
38657.95906365421
37846.48728415687
38062.122522401376
37920.96615162488
35264.44013198215
34865.161479268776
36051.46117619187
35210.27782362546
36707.52028388686
37776.45216916118
38056.174740437316
37485.17349764922
38445.47370609477
38089.588200641345
35605.74553053475
33659.06405192613
34490.693947192136
35155.430395326584
34337.939504729766
33481.614019783585
24712.27515014701
25317.440107834063
25036.22813724771
25648.82693410969
26666.1027693561
25224.408091773905
25576.13020104226
24786.115185278977
26040.005860222627
25122.00512173316
24684.54394231924
24325.17310769416
25167.953106921803
26497.295135877677
24567.92214617737
35870.06626919245
37184.31439523532
34819.16950085126
35770.71816266735
849625.8297200343
940020.8103094742
770044.6196829528
944974.8924574396
933325.0549652601
785284.5421658036
747724.9603759481
25056.489005387182
24719.17629164334
25180.52201700703
25200.565731377184
25584.01005062606
25249.404674702626
33531.09978882491
33021.85672662878
37154.742455888976
37444.51595507237
38301.79318890581
38329.03340588189
37514.49184892724
36676.40686986241
37052.635486510044
37204.7978077224
36810.47601599793
37640.39448764209
37061.911574890604
36675.11518274184
36930.72603573863
36277.67450918056
36156.36938123815
36327.55878744279
35330.91498013948
35796.08412873781
36952.92395271917
34481.990042595215
36086.716008820644
35164.76256409501
34401.86143341462
35315.996826762435
36829.44225868024
36394.17861976895
33116.859176279075
34751.292234789114
24785.598145802756
26978.710524369457
24582.265585157944
25524.66518958008
25026.777606811876
27239.965424374626
26493.35164389446
25209.14967249976
24727.57898549598
24288.98993852636
24731.995869371054
26017.638671467197
34908.09488826244
35970.907226348376
35260.81301804706
33966.17520029826
34057.57604131594
25018.57417867531
26726.744384729434
25649.51765195172
27507.049320011854
25334.923818019113
32708.252695521234
32675.70708128594
31793.168555369277
31126.676158968894
31623.402881771482
32102.81675540514
31576.341560298653
30815.476395917725
32342.5649164522
30493.48922194543
32195.346546892193
32906.97331629382
35557.614355354
36138.151150047066
35093.17914186736
27093.52524832031
24259.70033464448
24772.12338596854
25073.47597342718
25222.012285165998
25745.91618198573
25905.816734780932
27284.664371414452
25189.96066626501
25072.31637807596
25135.459183714283
25098.35878051956
24672.48701841379
25108.7057132197
25131.07461083927
25129.64385201234
25284.527716089564
25351.703191556684
24650.163857697087
25090.060688937287
24719.483401097932
24636.633190398516
24480.359817930348
24380.286825715237
25176.14135665871
25735.21482761003
24781.54505537673
24595.739477276766
25072.820910879243
25366.3963004028
24948.405618206358
25158.81983690858
25065.118669912226
25625.94231176105
25540.477236448958
26238.40592053145
24971.19879124016
26789.921735538115
26196.981101846908
24376.108002164456
24471.68041597545
25270.554758145183
24889.52398236685
24395.44824743718
26324.13846835942
26064.322757598016
26799.160947966102
25729.851581046023
26128.560612356054
26071.618374484915
26608.022958290472
25058.190005248784
26003.662596375645
29188.64260373873
29525.198447531708
29449.072711958583
24465.183672606374
27023.86682508445
32822.96065016382
34633.81385620812
33383.46129334644
34016.838669829536
32775.531304495285
34514.063675023936
33489.94785639151
34495.27068179024
34389.69742864351
35049.69175167545
33121.55362473149
33811.01756228696
33367.1294142522
34271.81183448789
33152.2379380981
33724.30170972938
33298.356396298506
33264.49975125486
932016.1008078489
790283.9141023956
747235.9229558654
896953.5947550889
904961.383806884
644005.3625805352
718760.9937629184
772244.838645687
871486.0513368527
31904.477467693756
32451.94444828316
31899.67537857525
28103.337947971842
28510.46590685307
30464.659450502524
28835.62640484982
31234.143803081573
29458.232171286676
26941.384391355896
27060.44877313679
26758.756733716178
27519.52810584128
24387.634436373217
25465.803164431083
24527.207701043073
24536.949400818194
25235.29042162512
25081.207679742987
24899.38725148106
25782.200855370287
25611.295442904095
25258.7519726301
24932.87970159777
25055.88007145405
25074.893262847105
25535.23229822724
24671.697265129806
26685.92460603891
25248.05627829658
24605.80620297922
25490.221128901336
25047.866099134637
24734.38109767088
25291.942872535154
25451.92546451684
24546.61265223135
25262.510878237048
25343.71036198372
24730.449803021966
26146.97508910499
25282.827231758984
24721.701259355876
26809.005056326147
26307.868674767746
24058.485878733016
24565.14085091058
26537.29369799002
29368.308830108832
25870.02988247396
29193.384354679074
29202.867271000014
30333.991094203222
25106.833215058003
24760.47718747403
25649.521988578097
24852.321347207013
30334.309374443874
32517.127608732466
25339.326970784932
25296.22453490965
28023.038263474955
27055.421035867104
28361.540115904252
32360.126597899678
33547.17494643453
30188.2348318932
31572.388363238333
29135.98530359431
32995.35232089254
31177.211696569717
26844.091233137337
31824.19690746133
30095.27895785661
30925.27151839139
31037.1278569243
25347.64230819094
25512.06277886557
26444.58028206465
26541.932630118237
27645.76670622701
29193.90404926636
27424.924570269177
26512.012064582712
29976.8990412548
26214.02503907104
28726.249696801056
29523.118557732505
27021.313940683278
26193.780297997753
29331.487699957073
27419.391493252486
30613.854032242874
30685.211128142742
29088.64109937034
29058.247670237106
27629.77007925436
27341.18746804155
28694.483967983226
28103.788465485617
28857.701645520563
25460.764632221806
29090.494128594113
25540.15271031696
25454.78003870501
26757.36140611638
25654.893243075756
25007.1870515637
25196.05750096823
25708.917459820266
25127.266937571032
27342.94171419599
26263.19807218863
24446.262800089225
25011.26246626403
25836.10031585911
26161.69459066519
25859.142215279422
24451.724068763564
25074.957638276042
24772.411514517968
25419.53950748819
25075.123558977433
26696.844666441328
24585.630622084893
24593.298317747187
25155.783746453642
24887.793821766605
26266.640271545937
25102.99989727794
25304.3309064565
24216.44248462511
25094.07332365617
25962.374852054458
24816.506879731613
24497.006263986204
24064.23231750967
25423.19426480053
24489.04906354478
26187.19944738808
26761.887627256918
24572.723227979983
25804.302038438767
25100.294829673512
24579.423377980936
25357.114185822487
25137.74608504633
26584.458879714963
25354.413726820032
24308.874629576287
24517.628556051863
24513.89152720798
26651.287428533986
24659.81910803493
25685.373125565984
24641.370821636378
25002.808899767908
26829.57229525415
25688.917803001652
25284.306459534448
29095.711018608366
24553.945800515536
29338.840552420977
29086.360536194035
29315.150463717084
27483.134776258197
27800.143417811127
29001.204277617748
29510.87816378054
29242.881979732618
27745.73565179953
29204.26653077621
27703.999123605634
29178.129584432307
27152.840815459695
26739.14807072742
30534.860368156587
31043.274310003915
25988.217067279795
27311.84785879505
30819.448495196906
31382.58278881526
26187.135356010516
25078.457204281323
25189.16867416194
25981.62374396732
24716.290927751896
24650.205941189608
25096.148105116532
25277.14750626439
31269.841839000896
32547.900151184476
30851.97994148186
31092.00275852294
24648.728140167026
25158.30807223031
26284.61123502048
25478.611871595964
26588.588881444673
27733.638046591364
27214.07171529064
25748.14700255068
31652.46617733484
30635.133855397748
30124.14751115293
30191.24290293477
29735.770427419422
30457.37070285412
25098.15371147318
25239.549881419476
24471.232080747686
25055.24820586605
26496.888173646294
24313.929662706472
24659.09163956068
25522.57904215846
24738.674234604114
26366.68835229999
26508.46448008254
24737.87364356153
26446.321358626272
26447.96013855008
25245.800259962656
24738.261858984737
25221.46554239582
24851.44168240537
26440.130859470624
643681.4031573773
900079.8869243194
720298.7760849581
883638.5950858777
700924.8983187365
683300.1109418923
647829.6611695663
862387.5765032517
851621.17161133
26271.566582761483
25344.778704516706
25615.217314529567
25126.41163248762
25038.567801190286
27790.782235605697
25884.761667745628
27283.84880484246
28099.950581112913
28256.284647541765
28147.21212745457
24829.678127067236
26283.912397943448
26482.50219328857
24916.639000802043
26399.8426777576
26320.745280550767
25249.918103609696
25546.054984810387
24330.321478382997
24754.740635481783
26638.973616860327
24227.126097898585
29342.6168334059
29136.521078253107
29095.615462113863
29400.05195285261
29308.256984907883
30663.166582311802
27349.568936420616
28071.977230809247
30845.887933568258
29246.27493027487
30882.94094408963
29548.732873940397
27032.021314687037
29023.41304775236
28067.238057324
28952.96305721934
28781.239535867633
28978.848149634185
28379.235064583314
27276.15485562526
27156.515429211537
27216.211641411952
25545.128241344006
25778.815301866136
26003.3688564245
24650.41347715513
26388.312312201793
26074.861272362406
26681.693671768648
25072.728603065563
24572.562284690546
24810.979961729434
24493.41129806835
25544.500759836832
25317.882444780713
25112.2562345149
25032.66937592456
25122.086464051255
25454.129012728044
24337.365113077278
25361.855808693384
26192.673772251434
26472.326102149265
25481.804709647768
25862.33856246893
25551.797806977636
24490.967037035723
25205.846324769336
24466.382059813517
26188.070971494682
24662.461415624228
25447.570632993593
25185.773186312483
24508.707917400985
27216.029220355053
25146.025676713147
25046.928474589346
26767.058436027295
26175.816038259967
24104.72651942117
25265.321079668112
24682.33613600883
26086.36945632659
24863.361696356424
26233.666999293448
26830.40491108219
26839.880160457305
24543.050060333477
24237.02617839307
24545.19782191209
24596.79222191849
24860.65852169163
24145.124267942225
29449.770574196617
25851.632510243457
25816.307121648715
28974.517948716126
29019.094708002336
24482.779397004615
29044.412922435884
27755.336953407103
27775.212701416243
29383.536625552155
25736.016995151418
24300.98681869164
25531.000457701943
24592.53147092765
26006.375962828624
28953.36181334272
29246.729342654442
24861.721159132812
29265.396835482432
26762.038089503534
25519.833920271354
28028.686063796475
28193.83923841872
30834.424490352692
26879.140502299986
28938.734343174485
30805.76803733788
28964.898190970875
31113.28170904634
30921.32742210053
28925.34306341958
30873.487533149982
29070.792652204622
31196.311994137952
31232.747290894244
29534.6270528883
30975.3787410171
28661.156913773702
31179.27668393834
31635.539996513275
29754.628686669847
31698.61029259526
27932.67226718039
30813.403735765947
32165.026101001004
27813.41588252693
24452.64721178354
26801.4178515368
25735.18275604335
24715.161903026292
25224.75946292012
25001.40764106672
29265.708976331203
25382.878806898003
24892.435376536607
29276.139955985316
29216.640900890965
28062.632563907868
29205.121566282323
29108.56898486483
29175.03195554241
24214.458662925914
26649.64454989192
25170.31950117384
25115.631356735055
28195.536284577694
25832.124934545966
29166.4181659157
28031.46261757994
29383.463513170387
29407.702203666162
29398.295370549808
687960.2288048454
824053.4107201193
796270.3178960724
707843.5253243904
841546.9851845728
649916.6968752487
861936.855164365
636120.4573472497
634217.5443269976
618003.2445565669
810893.4597811908
709263.324585726
808724.7160524864
755541.3564850907
772706.0502766655
675392.6885053831
776598.0455527254
27977.949147864743
25201.896891235334
27336.04133988949
26887.21143032065
28966.552660403064
29373.163842064212
28218.932623298904
30630.832487880434
26818.28798731374
30730.04491412529
26865.35248211541
30675.373376286945
31187.904265048917
31061.60652850547
31125.87456295404
31635.146530990463
28652.59477722606
32156.03402101981
30366.515796209667
32334.80673980539
31031.9131058731
23840.194871605927
26760.53415864337
27497.64721188965
29131.578345044356
25330.76607897144
29510.074613758814
24651.88733556229
24602.870004551412
29433.890480234157
26277.900192666464
26970.858436450908
24696.03694931835
28282.1128149217
30743.332381265074
26677.03190314728
31064.94758563774
30723.45952869027
26282.790692432667
25661.36283288736
30778.39614166138
30864.38694500529
28667.874198862537
30684.732342890613
31111.813447965196
27051.489868639626
31283.329795020545
29878.669481495745
27378.624156782247
28081.768303695022
28911.878768145
31791.856127319432
27427.357160660707
29624.376666006563
31740.63615349626
32001.736588028234
27148.805978511216
27030.2595445133
32068.705267802856
31831.167433641953
29972.51914844988
30096.64278088843
32136.108123681068
29517.642891177547
32018.520670824608
32229.680504449316
32182.46836137576
31000.78066954672
32448.425729872622
29782.07718803144
32925.33190152041
26654.257752430018
27430.0395720306
30643.537697467193
30773.95228613513
28618.16034180674
31054.535188324833
30316.622796149688
31046.111555100375
26695.24220245735
28235.109561720423
30803.04680985975
30938.05257111869
27244.328577609438
26466.479550917007
27667.556009703367
30514.592518215628
31161.027924680977
26778.052314046934
30744.33295168853
29268.766222014052
31113.6615247314
27701.23343630224
620464.2925307233
664906.4212651897
715138.9044834031
742122.9099536268
638981.095039071
641188.2950736504
616192.6357595961
747190.5388321917
648934.1208303272
760444.9356503964
789170.3443438608
614469.8505471481
610875.9710201679
632762.7827108409
703353.1357523728
596633.538469414
684927.5036648352
616518.3145366169
648654.7443284572
739739.4431999772
701216.0680961562
721973.8891125816
656394.7407119776
28357.412462687884
31289.66406305053
30168.799667809228
26939.072263933253
31648.621715303067
29666.25006073828
31785.210319660186
28838.539031178247
28994.209182344865
31580.58330303949
31868.882600948564
31652.56073589321
31974.28074700154
32280.821868077386
29893.50098207922
32524.428639634778
29494.226227817795
30603.214917172285
32802.3041102512
30230.43988546011
31336.965154892685
28052.7278936876
27103.00199555081
31903.531445302833
27816.582644797472
32246.236735394625
27617.51746756828
31650.340275308798
28687.822149370404
31837.611281810412
31985.056115110463
31867.2883431738
29561.90444525432
32006.66359887249
29209.701425704654
32001.55040661938
29894.026803066463
28871.564325070878
32594.362869417037
29787.08348116864
32754.033173483407
29234.005976335033
32699.71158795232
31343.10015724386
31033.122884260698
31662.18820101642
32852.95088853179
29300.049727524052
32929.987128153916
30916.870761312843
33246.432269696576
30316.391390559507
30783.902129836537
33538.71018957873
29752.08460515978
31919.79923508782
27302.90406694705
32118.98168463609
29552.29056959237
31936.647973099472
32224.288671631548
27259.960354187293
32000.714986793406
32128.97522557918
28538.241127629793
31802.34365427929
28145.034576149177
32133.816900097412
29608.70414821381
32186.523489261373
27713.537434252237
31898.6240611906
28719.744439602353
32159.86903561483
597325.8384826018
651198.8110382635
682777.6215412151
698105.6505132843
611763.5048200842
654540.9576431864
642637.3876975339
724467.0604439194
683868.1634613462
810469.3082331232
632819.0167519937
737919.6420866821
671224.6336914004
641729.4476364602
677598.6607194341
603579.7014823781
686572.6296196253
776696.01543674
674203.4484443663
607223.807638703
602428.0978628795
609578.1697230992
627203.5438202627
616008.4247296447
585594.3621933204
27639.700201157
29434.31580350753
32372.667973779484
32282.931343730157
29387.278761016507
29823.62036991997
32710.30024950709
32785.17592782779
33121.450928660284
33257.87898894291
31134.09740675888
31401.735740754102
33496.56941036342
29371.963380885914
30537.502626786238
30442.74520211983
32565.348787880037
32526.559316555584
32371.19074199143
30025.6497219521
32474.59953589744
30555.10231056326
32974.25717114316
33301.23109101711
29719.758910389253
33428.185070695625
30984.221347992443
33624.180057331054
31915.99304767064
31078.134746547104
33870.67906856809
32364.2286759526
33882.196645206255
31665.58692991609
30478.507741135545
30897.640846247483
32571.389740157825
32590.074036215992
30896.03618790051
32423.463122853598
30855.704110972594
30699.493712315336
32561.813519471612
32369.111236346067
810419.4622277148
1396200.800424215
1175317.0798414673
678366.3808072668
879481.9023808484
661692.0121071115
1784521.5526170924
791138.9760463223
793087.9587478238
1120867.8016595172
840570.478554365
1324538.654948826
637619.9969519018
796513.7303003093
1421400.1566521053
643455.0208574131
646389.2467964261
840792.4123987373
1830676.2704196877
624612.2970334402
641237.9284334934
569869.6500366024
30781.92237805761
29635.52169469288
33137.508524123055
28264.433730124238
33238.68856131586
31466.82980915707
33503.362433132876
33495.21480660565
30599.711687337498
29971.592004860777
31601.705612028945
33845.01878566499
31806.968867850384
33922.43876393309
32121.00639693805
29296.20664469927
31568.909536661296
33090.75103604639
33429.53554765291
33147.80514100171
31811.236316044517
29888.41106325122
33074.575410753125
32944.94513849489
31056.103497379307
31265.17086735096
33796.91417224083
33797.3340716565
31982.971818100374
33814.688308834186
33926.66690113005
33989.65079835541
33879.609058760274
32925.68940403397
32524.32156230082
33015.94775912842
29237.140455804598
33222.73734623436
32137.89372267899
30508.75782353911
33151.748117157236
29234.791858958066
30088.094636131893
33229.78150071942
30504.16296088478
407340.40254880727
516483.93786389875
493602.74864006747
756198.7451160447
537851.6015996245
713105.8843760153
508957.5860925416
525602.8692527458
465088.9024295215
403253.2891226965
419431.9086566209
366476.3532547331
33774.28990298562
31649.71330507601
29514.73928183347
33779.51749262524
30591.885321563735
32216.10682219219
33755.93379808388
34033.21522209958
32513.94695313824
32733.46015601268
33546.37818387341
33730.13830953553
33439.81050657464
30934.07726492793
33440.987393258605
33618.14799367191
30299.337294381403
31531.355137359646
33645.87016551436
33544.12172112759
33249.64877185137
33668.706275980425
33386.789906527825
33855.67258614663
34085.37159926642
32460.119502101297
32520.88670581426
33991.26454923587
33877.917050563294
33988.50056135497
32995.1702653213
32654.504254785188
33906.81387879393
33975.21475457801
33520.17514244534
32057.751757218684
31496.837477996432
33716.55460809663
31230.85233068791
270430.386025073
327488.3966597254
317987.57042179984
335872.00353820005
531210.6590270958
479180.1765919845
373318.7539318657
259761.40540165812
391721.6679982686
327016.39262333093
338789.17332475854
313708.901157921
281252.1629712299
338142.93726524734
256305.12222165486
192549.61808927663
237452.94525250266
221171.75960737056
33923.76277873297
32351.861135443738
33920.809753835056
32545.852992117583
33889.04939000602
33106.605033935855
33664.81353448658
33222.938875226784
34140.514009199804
33786.95951699832
33964.37144100971
31345.90127239004
34008.23418819242
32295.999485182234
32235.293602518006
34733.40575760578
32823.69865204089
33964.829594101815
33061.17946646112
34624.85311610196
34135.23651170484
33313.09391721167
32183.649755970797
33808.4488440096
33534.117276340934
33482.16359234772
34360.356412562796
26561.171106820355
28884.367062807487
29740.838478136346
26235.0465390285
30107.5325458626
27139.336864156492
29909.507820142342
33992.18136952712
32108.56596636181
33091.70493737854
264346.3124240349
265714.250883957
214091.35655931084
303941.4160034879
335675.4670099093
257172.1837086899
287924.67186192045
251282.91294731203
228356.22836845505
222982.94383069055
216317.29362664782
186904.58747012002
203571.5224385418
226985.5299297352
29002.778517454914
26600.13573352372
28762.11760775116
29779.085404689253
24772.815978136976
27012.218273311973
26306.375043879365
24877.572337227284
24855.737206553324
174334.70194514684
171410.28348579071
140423.08991656688
173062.5096312267
162853.80341233572
191579.14747133866
216581.88947926517
206606.48750442825
33999.37579005575
33389.156971325865
33703.2159474958
33813.24775659328
33751.65668100012
32868.646798549715
32288.908303996628
34616.30578706533
34074.01473981197
33404.85228487551
34133.20544903543
35202.06045924774
34227.69883966118
33501.78183866771
34149.32174634929
33903.050679970496
33507.11368632027
33993.48853397742
33869.69259702169
31494.621979287538
35205.917673200696
30770.520746120983
34841.90366194994
32246.708116563572
34686.70179040803
34191.58468295748
32679.451020631706
33601.370574240886
33155.10465576633
34866.26586690585
34184.004155844574
28441.109687095133
28715.431894262518
30106.56466107458
26354.21046306928
29153.45854846823
30213.27242158703
30341.101559774543
26688.873900100152
28104.45395911678
30067.92718658851
29792.862543431576
28204.30983804196
30161.28591784574
28821.354468237067
35741.76625837387
29847.341691872796
35286.22147788586
33740.04931833103
33666.73293535799
192398.6965416982
203355.5611626535
179298.25426321203
187810.7684813131
152431.17777281144
163192.35048377136
145963.16587405227
171485.26428439558
25273.87042468306
28738.31846879088
24580.93688718182
25723.16944432287
26728.405567071586
26693.399350010004
26741.829758905853
24825.42699536116
24269.3265542407
25577.70959617652
25175.994094216712
24833.95568617126
24515.006702792794
25929.20858723224
28967.267145286605
147553.79668450216
149309.24817326962
121229.59961506801
118343.6745727765
128956.76963631416
106529.24554419017
30139.317882006326
29054.249203411884
26893.400656037033
27627.91784806832
28871.878614993853
29935.841987665048
134474.9030671065
180382.80872835565
155629.878835296
148413.84810997223
169024.39914999774
27897.22029339547
28817.609416829975
30060.119849119415
28942.954966537964
27966.44196336846
30187.270993442704
30118.12409216564
33416.11198870364
32976.286906171816
31468.93043151367
33548.82867495766
34932.25139647741
30712.072013302663
32230.96484564965
33964.10750169168
34369.55852995074
33932.285655101994
33575.47655796273
33917.280685309306
33743.42289862926
33387.25765287211
34143.93679519086
34694.246435428555
36614.334493819304
30803.808096027875
34414.67269461543
31510.815606293254
35363.22562212125
32101.078275178912
32678.536674391726
34096.98411294418
34260.103023856034
26928.70062249541
35525.04855418006
27881.817566575988
35606.243882986986
29308.12728961727
30064.049106331906
27965.069448342227
28031.886279340495
29095.797579972437
29736.86363004209
29562.08923195703
30056.085018528276
30011.33090593836
29113.85079219332
27549.94102857583
28247.102641397967
31376.820482016483
26085.337837896706
35505.29426293173
36320.597489098465
25523.109287654832
34595.45279981375
25305.45603884572
25196.627006369876
35594.65655027438
26066.797952159104
26846.93267783159
33294.96733118632
34852.57618128637
28784.094368743354
33991.033205067935
33060.64078897301
34563.53407673366
34441.76950790872
142935.03751634268
151462.0977328832
161680.62477464334
133268.97407766734
148886.39372788346
131194.87099818836
119307.54903506495
123938.86784372083
108131.3362140572
127212.37047840105
26443.385116330748
24701.94715397488
24580.012625206335
25210.81631749579
25318.63997242265
25490.005006509695
24613.344034711612
25019.829593931405
25266.547018462377
24201.876269498414
24753.29029457857
24711.378791479063
24971.59815232727
26571.465197193986
24869.10345773774
26541.847466064675
25790.20630353258
25668.510417219877
27882.74980896061
28608.60232129754
30400.551866673308
29071.911184967434
26416.201911985845
129815.59087125055
106883.72532550062
102992.09200246417
118781.42512810427
91314.08588650722
100544.64323032061
82039.52448918635
98341.53112485852
86092.00048173772
24465.904792588186
26331.756817062706
115258.49759740758
112304.44112222691
124583.75800199994
101565.44001775078
25571.17465737662
34696.94425856416
31186.14157317613
33137.303971299065
35744.29360900123
30126.629941125917
27793.49693837692
29984.972349442996
25414.84913786867
27884.250119851535
30282.65876109143
25963.614673647277
28308.381122847597
30264.45633386115
28164.498682795096
29048.28382593487
30610.19628299306
29776.06463689174
30277.488591468456
28922.446912418633
25620.689355901843
28156.449519447277
28980.6203114264
26281.138995852998
30026.403972909586
32165.983696520278
34790.609091224505
31500.44559108408
34027.09166362727
29134.98294815944
29839.778037381926
35430.41326508422
35433.36500451423
34454.78816350837
30564.91040086705
34544.39216760708
34991.415315380116
34637.32010940663
34579.49589277402
32656.583012438357
29774.705244273104
30832.846793580415
34754.29195894474
31502.28064742399
33528.72005643601
33950.292443744336
35033.00119825985
26911.11006346296
33020.035744055866
30141.534374174644
29738.71274944424
29476.539249076515
29014.985495108394
31424.752005148093
29925.99330267696
29468.333738291694
29622.554500709684
27869.55758970885
31272.834759573663
25420.70204854749
25307.871535177357
26257.447420294968
35656.53566691624
27904.623391126148
33214.15177672675
31559.991844181626
33948.73942424341
34737.885931836194
33912.84369055202
27770.077976251985
35719.41523944296
26911.091175451078
37101.459782671816
110148.11896770984
101374.57516819889
103059.23850739245
104251.30364376563
90981.17058518872
97563.57416135751
82311.10410875562
25286.168358230607
25439.739244340486
24550.23081063156
25058.129126504613
24444.251662880804
26161.720970351802
25109.460340152335