<?xml version="1.0" encoding="UTF-8"?>
<VTKFile type="UnstructuredGrid" version="0.1" byte_order="LittleEndian">
<UnstructuredGrid>
<Piece NumberOfPoints="11313" NumberOfCells="58401">
<PointData>
<DataArray type="Float64" Name="von_Mises_&#x5e94;&#x529b;" Format="ascii">
51655.72240444134
52103.82241609588
53940.683986497
51645.81517723568
55110.769503508
58698.059645594
51092.37496018175
55229.138058461795
52104.93935882039
52807.58239715655
54361.41565843095
55673.87716215852
51614.003142341106
50815.92820083607
51876.732419360604
55781.965639031565
52831.40556844842
52234.38014143147
50439.67083927335
52193.84015828592
51693.790859440516
54943.13832671387
55191.37878553281
50995.55850389656
53800.25705415543
58881.91398429154
51830.35095824395
52073.153956549206
52975.03731586041
58820.92941001825
54324.234438093285
54125.55074983055
60341.036219166286
51381.18064053548
55681.081492862075
59865.64437798572
52130.54036866058
50998.06894875146
52116.77356925531
51737.45527728989
53505.724179619276
54800.165484327394
52748.79061936504
50935.366210062195
51978.51385463712
53843.659828149364
51672.48907580298
51924.486338032584
52181.65927492132
55535.965514426454
59842.541506310416
54083.99074747274
52358.61889681593
59771.578949831324
54367.75453747339
53348.561390373354
55396.98198773646
59293.404909551784
54283.61530835129
50540.8490448658
52086.37092363294
55305.11094363781
50621.84575905291
59645.92837607954
51210.93561151719
59764.40536078714
53728.687232620636
52268.907202275346
51916.61547976948
59953.844095379
50510.85404282896
51664.236637994196
51775.65976500788
52417.75209092678
50283.598834122255
51698.59428068355
60203.46931013653
52080.814686186
59676.511070769644
55042.17533452853
51947.736086487355
60023.47774569882
51616.48387043455
50716.41833526861
52458.189889286
59640.785020291245
51072.53033033864
53815.398494833804
59608.966294950565
50241.09560073635
51979.643363005256
54026.73376761791
52180.18241179522
50216.55194521488
53946.93322959252
52199.39097786832
55246.83081982306
59631.427412002646
59364.22626781258
55578.69477364751
50030.537727397845
50859.81285789761
52104.8392583277
62754.13666143241
62245.33904506459
59187.82803749532
59858.45777646835
54130.149857945566
50189.788438035546
51955.700608254265
59247.36979225714
59657.71869689937
55371.30057225699
54155.00766011085
62740.07528552938
54463.560059588846
52569.43530656258
59038.01196596122
50812.78118588067
50077.94151031462
51722.593679402904
51904.814590506736
50625.58834318077
51794.34595761146
52136.494483012495
51139.839673669914
54213.67120375837
52002.57485273391
50037.63086937271
51994.49462914768
59898.106208885874
57807.89562610928
55359.35087776156
49787.530272698095
51691.648912278244
56177.252753649955
51329.61315493792
52274.673117189006
51955.4399537003
50109.244905400774
50273.62565370004
51903.122544260885
51873.83995016384
52010.207415727156
53694.67812377218
53968.67446694222
52919.62813292162
50358.248343459025
51789.666551842674
53817.86564401584
50853.53867109546
52087.8837052574
51355.753249519585
52919.711874260145
51699.75063211873
50496.09121935467
49644.567262623525
49968.018052688
49992.42370953831
59834.99681430538
57041.19957007396
52497.647278622484
59532.66425143015
59635.024385909586
52949.433315022354
62854.62663676544
62329.9082269121
53321.21272916941
61923.05250470294
51240.76820895181
54719.531818218646
63317.178931532006
50530.0605039496
56800.44508401206
53082.10758156673
62058.107960409165
53394.43033827394
59931.967711805984
54141.865476733794
49887.1673744304
59939.8667789398
50538.328061128625
51304.984996354695
56326.22283529959
60112.015164980854
49837.341412897935
50291.80198046901
50869.798404489564
51715.44724287933
49775.00207699248
50228.77911144594
51439.400368440794
52644.76076856682
53654.05115941668
49861.24767543136
50494.773474445916
51965.36613757002
51164.430813665436
51877.669869056386
50818.690449821755
51970.95142808292
51908.28140505484
53531.57141557703
60113.08461054325
54430.38081960176
51440.08250642743
59675.094348056315
55479.75475161413
59008.33285193487
54251.71929227239
50625.78266778102
59059.015705784805
52033.0608307722
51063.19776509763
51838.38427830331
52732.915309733886
50251.2828309026
52174.41886650705
51652.71919124329
50414.33225138547
51752.025716267875
52439.11192119886
53108.49665268287
52575.12497072384
51772.57999450175
54067.64309969247
55375.37425986972
50450.45264535244
50387.861286930674
53688.44755262712
57066.37045897073
56301.628706107804
62139.55092305051
62662.21859270863
62287.85954335011
62621.98655220563
49568.06775170874
57987.3860579331
62814.11862761905
54709.785234020754
54638.52034491597
62339.30409895073
55334.55880986589
50064.95457748987
49605.73357402581
51762.64733784208
49733.008684589
50600.78361242201
53151.77055445055
49789.462176979636
51856.99207218003
49930.243218621064
49897.23045822691
51286.92883324425
54239.41509809526
55442.690838265145
52079.76108711483
51947.15548866705
52154.81315449599
51942.868998091624
52308.23858009063
50376.58384986166
51671.28814924779
51852.217017768795
59292.27391834357
55399.756792290864
51837.59913358492
50307.024747515854
54443.19072670611
54467.62474880079
49791.317633591825
52408.931960825306
59729.82679789622
59832.47857569162
50741.79034250858
50123.03387795589
50285.4961203127
55700.45279510637
51557.93991278838
54867.594446466326
50265.079197174615
59918.485178701914
59839.39742260048
54233.97929459129
51838.949941112805
51881.52725852758
59985.91556284148
54003.5705183561
59845.984855087685
50363.62502037074
59605.94604139717
62317.720340888554
62197.47234011869
56998.94845803059
55430.291413538274
62855.57652467072
62544.6710178681
51673.23948681328
50095.91584556066
52767.37435348337
54497.90922879703
52427.776689127815
50444.922292718766
51753.312841857936
51995.12981336969
50251.39982537538
51249.49042793689
51743.371554251986
51872.50272254308
55066.45880452687
60127.34240075844
51196.546421726816
50498.85859525425
52581.02562014491
49737.67821781095
53057.11620326644
51163.461098238615
53005.5224542372
52323.07901113414
55191.985446455015
56297.68650576567
51613.93179820273
53671.915245223914
51070.26555266668
57144.84310472587
53256.20182230726
50737.931260629804
58157.62649241809
62192.52739824381
52324.721989309655
55308.97964819697
58120.286307875875
62494.4817495967
50075.40481793114
52717.2278560786
63087.829179404915
63701.6876219361
62177.777623211594
63005.57763080808
62094.62737701339
55314.76363502844
62108.811811448155
62806.26089146684
58015.70191648632
62351.06542834014
49936.40406583843
55900.33731125755
49491.00505906675
52696.80461642747
50531.44355222073
53259.83864799645
54830.32317653714
55177.55658284784
62381.353786313375
51971.396740923505
50589.14082041955
52248.84447957025
54366.22162064257
55091.11065198969
52944.06306397477
62775.144289337906
50653.97812306131
54791.31744154029
59045.25832166955
63454.12502304361
50284.30438116328
55240.98627312707
62778.00998150108
63631.10296909775
58624.90014277699
63768.614538513604
53725.58220815487
57957.96272061509
56626.20292109081
62396.94159650342
62612.67564755641
63272.46125407631
63628.52306234605
62135.234428723474
62887.465712699865
63844.919343928435
64187.94912580979
60505.32423269923
63261.810117799556
63643.43872759721
50563.525779527336
52674.20848405692
55187.11887435539
53289.436930982105
57127.60773760583
56199.853939838016
53572.87912606701
57093.51340600403
51720.34392009075
54274.81544808291
50885.00628126057
52822.880601768615
55753.90279287183
55526.18550963861
52631.13515504435
50727.125610548705
57055.235913616365
57230.076011204845
54394.28913718528
56016.83066930226
61688.576775883
52449.60144342733
55298.85120079818
49920.33529757366
62843.35279573239
63388.877611802636
63639.42068699152
58642.38179665377
55833.375422207835
56390.168641806325
58771.39730316861
54246.7244376184
63699.82365454376
56120.49606728627
62008.37732526987
55514.73329833647
58775.59575407867
63164.529120859996
60743.21671674453
64253.25461169082
69738.19665975517
63674.247221695456
72348.79519371953
68927.8751228493
78686.09954471058
76034.21838142062
74070.56878198484
85887.87319042545
70907.97643193137
65894.19056130829
75496.62485329427
73537.88999528809
81866.21228649495
62267.98406491641
57163.56067114007
59529.528987767044
51028.60556770897
53288.442765163956
51893.67718351667
50756.946255557996
53845.13744921333
56531.62851423373
49943.46020800175
52307.56200502287
53877.67890426819
59778.591164228776
55934.34893404828
60745.37887230655
65964.73137262194
67038.16440223428
64428.850973156026
61820.04932899205
59542.13217941835
56784.03097460557
56849.643061716146
60787.95003233537
63184.73149571483
57924.80586017444
63685.579707735735
55644.486405369484
64014.92823189245
56493.17996745955
63318.87854182394
58350.852086413746
58928.42498358138
63654.015518079475
60218.68150632671
63234.88696512254
58689.41688510922
60756.712954999886
49560.18698480295
50220.677723709545
49583.800951296274
62399.78648345669
54139.96822440327
49746.834021095114
54403.69589535724
54499.2798164264
62811.65331842844
62536.4882459862
56486.28204571747
58631.312936343464
57343.121819813794
54239.94689062176
62774.35631613317
63413.90139646356
63397.014624544514
63333.49472386153
55306.11134472477
63809.019232497005
59999.24831390845
63240.47125640916
59488.58719533692
63405.6472741241
63889.8701354842
97559.18396259459
95613.21156740832
105540.20161517635
111439.56633487319
85207.70113450303
92587.47153326741
81791.06206380622
110759.80865059666
128291.10772137783
120889.47484071097
64504.65696342794
57943.2309619363
51150.77357647906
52805.9636425688
54611.26154832357
52924.12127165128
55719.65357767628
52976.66532462422
55883.1590671231
61193.724323502225
50170.65731099362
55610.79887017405
53184.20728137562
55115.15138782613
59454.82307438698
55325.080835232046
60980.28897737187
80626.96150164811
85283.34971107286
77019.21457957763
82823.76656964234
72748.85836940401
84322.14598887907
92452.95071496791
89586.12190857295
76307.26499312866
78962.63678301565
60310.17865463322
64944.71612031955
61083.88805587638
67236.41410211974
62251.12608792242
57184.80957005322
66770.45725791565
74198.12994693787
76417.87753477899
72618.72460423931
81601.38076544848
68962.45617363966
148772.240511909
140625.79090962064
157568.03265851582
135932.65817439833
152499.97349197126
163295.73108475417
184061.8240661298
178175.82191604658
174499.32296502785
174097.1421142752
136867.36728872897
139895.803100198
149342.86480887732
139503.0796404229
162653.92766054082
159381.42358763437
214774.60045122847
209444.12396029886
200251.57335008474
203506.362332299
191768.16922687864
182445.0387556047
177782.99261028442
176993.90934384707
213778.7727438664
230977.94415922218
362598.5889333402
356000.11632193736
326871.26514577353
454716.34225175646
210443.5086182237
58594.086386299714
63603.32591131781
58952.901344264974
58882.521046276066
63910.02394721571
63382.85908310163
58763.174124164136
63568.46722396395
63765.804843585465
64309.61128495904
63880.461809855646
61113.79773119725
56580.6366668951
59399.33247641063
63998.443404454956
63692.47583464328
58472.20555844121
63257.66753532385
63835.76936051124
59297.5530526165
56482.884843707136
58905.47253881659
61511.46455857132
69546.94505225368
63470.18946730447
58039.10241787456
63775.65810564086
63760.30799623817
58805.31348969532
63933.849347134055
64886.59201503325
63636.7621942207
63448.87728162068
63399.43055508327
63953.10824352096
60473.4936417152
63972.38061306988
64019.652631297824
60952.65009112469
63879.09775301402
60819.232790963746
63629.64899368712
78393.4104327601
72610.23675135746
72037.4545962961
77467.82360738309
74225.83352886174
83210.67967599399
87327.58023429297
68983.96738359284
62097.88689390467
65460.53788507363
66672.75800045149
103321.16951764259
113413.22346277295
96343.16302806922
99377.95213204845
69166.99085616645
78203.30055005912
63731.26670707267
62443.26324615031
69185.96270307645
67540.18417166002
52866.258304222705
54985.64597284432
66477.62705633121
64141.91704662513
60267.37099796866
61529.47392695977
61040.87128040772
56774.72640189094
61175.65795452289
57712.19092969954
56069.54498467603
60801.03547036848
63636.046647684416
58950.74563426023
59279.07857450641
61498.75084141787
57589.47603922087
63263.77027713847
59538.14623701968
85338.59462237147
101401.55060953791
101856.77166941296
105731.69398478267
116904.04938862717
98390.83721386925
94739.2933612425
89549.25272855983
63023.6616091132
81495.58302854087
60509.04648752518
60325.48006574714
57432.6534693678
56296.45151881893
59506.340250027555
63362.1993232563
58816.19231540014
57508.70589742557
61230.15611900073
63890.65591700015
63638.53052519159
60795.98952033261
63446.770233288444
63976.1517823606
63820.668065652084
57502.769496279194
63654.87146963535
59911.718094466254
59808.99140789105
61786.520912681524
63638.848168656536
60695.12617790836
170623.04940168295
182765.23242998746
106943.22671878223
124858.59677190144
121814.19671700992
112886.48733374731
118035.16058780473
88954.11141238362
131077.76246168852
127822.8168068992
150954.71024690065
101587.24929516332
111214.31917129632
116915.11062297956
228494.13494733023
244290.15274288412
242475.90173392545
281606.99401299277
261380.87740794182
234417.83621600678
55125.38110160428
61000.5053892749
56903.71295456856
53431.93150552573
67538.11769840331
74684.83743454574
67099.2775527146
139380.6665277017
130480.18426568809
120721.24779896201
128548.96036843349
147065.77996267864
134155.8597650999
125620.19308422066
116914.01233916733
128311.60906162379
116036.94284277967
111797.2469431967
85821.8127719903
103185.55139307187
87438.65871045222
94581.83376842731
89886.3500046119
108490.68781612358
90746.01508227517
110376.8104592949
98396.13607394026
83748.7250319575
75162.93129389161
111121.71014691876
104200.101485421
104828.44395024212
97854.93443283277
105456.7434256118
115444.21094819545
112271.52178847646
92236.99495824469
87171.38189620612
81398.46737714026
65264.30344034616
61994.11877260527
75983.00864372496
77380.13768234431
69101.4747756713
92097.82384713355
82899.71260391314
77751.93851536843
99161.26055915946
97020.71211677566
90784.67554353845
88521.85656859275
188319.6085194051
130534.55218243464
113286.82535612887
122824.96637242373
136653.70841724853
142248.86222987206
161816.43708863234
191657.06323293177
225496.22432013176
209164.71977384746
176968.2609430867
212162.32733114407
166776.9839772208
150531.88817520163
150807.99770223352
135754.7220298231
512686.25544871314
872959.347797314
664627.644653945
873804.8148636257
382068.4396462191
458462.3513135946
298187.3703928068
549307.1054104104
461967.42890293314
888793.0615748175
357401.89884037233
454365.7472561847
129901.00300994072
153207.23423544335
141351.88783066906
161875.00473425467
197471.0103434728
188371.7002053941
157463.09117864814
177088.8923690313
147496.13323781738
135769.71246201184
669868.3627050044
912402.6548800177
159485.4302547879
189681.64938232285
533921.725151573
484018.46789599035
264839.46029471065
320805.8374020942
357871.49990523275
343103.1031514069
299330.2977339472
258571.82877289015
239846.28850322575
271981.9473949293
310159.35648554727
312604.9505473189
209973.3814836189
223741.7552592106
259019.28904629126
293537.0311717547
335120.81818994385
257392.98156698045
306489.65461022436
235647.36944437027
257039.2841484153
276509.25453184196
278537.88785227184
227843.50624177294
63784.009450428784
60873.80246479502
61894.260898203596
64007.11123525747
62786.09567152432
58825.62605188664
60673.219716485444
63567.495076004234
63365.6421981258
61390.42510789015
63160.8370700116
59067.862805405384
62875.64878770285
62238.020138104395
62068.91079280731
57877.32209815896
60713.99877650931
63655.939382510485
60116.3860471921
63301.83897326561
60472.36245689092
62654.24598094706
63261.24505224652
61296.539847954664
63760.676704843376
63591.45276300611
63469.933898254036
61896.777055241924
62013.07590221311
63657.581931290515
63279.25359285928
60735.026577660654
62587.4828821267
62301.99188182334
59930.658632894396
62921.90751707479
61348.07952278987
63785.84764536342
62369.77982177171
61828.15503931423
57923.734335940906
62892.67951840649
62357.35226463651
61571.65758228277
63528.91819392072
59919.67731683706
63687.55667661768
63541.695473859494
60817.57412221759
61356.00903908389
62533.94882168377
62421.9207721572
62602.098232363875
62157.194379497596
107074.96834467657
101800.00675028059
117185.24685604505
105357.08380767974
93248.30801117969
163033.54255311115
159579.09974347975
243965.56807893547
189395.26715221294
228820.4187489114
332847.5063462293
477426.5714797383
399069.91022219084
457407.6136732067
492109.5552834386
464028.1795684816
409705.38353541004
412356.517243932
445425.3631976067
453250.48476785683
353071.4061854367
284407.6224417831
418484.5258385874
417656.2077997469
369939.4134591928
374675.76552099903
383382.7802083933
61736.475601305654
62755.27294914847
61542.367571389754
63089.04451418365
62555.994596427576
63003.241537176036
60673.42546847567
61791.95271522092
61166.63678040642
63335.040214075256
59638.84284051033
62484.99792784681
62494.731304410416
62658.395056497124
61824.90125005079
63584.71990515646
62094.51084035445
60197.06483368448
62923.531959094325
62921.890608755544
62453.44693903783
62612.78664531089
62749.991051290795
61601.85758160826
61379.300863053584
61463.92886390446
63163.396191662076
59726.94636066687
63007.02609974042
60187.856017693965
62847.36840216323
62021.48612268738
62986.21585463957
64100.265160278046
62919.01160781531
61634.87367240567
63357.363431239755
62003.0443044774
62233.865293904
61737.19008468274
63740.483614889294
58659.70454649067
63920.844771814714
60256.808489195086
64315.61472422242
64385.83915808489
402724.93552605313
411815.31415986444
369298.8546106455
368026.3794412666
403233.8937669058
360859.9817989502
410149.4486800288
405178.9391276653
420345.11231196835
368948.1012522601
366638.95692057256
436586.98140936217
64211.09867149158
59121.21302683127
63261.84237735921
63778.77780798144
65605.91892976995
56940.437261121995
63847.33242224186
55735.85511948266
56792.85684875037
64463.82376598665
65627.12603618143
58893.369810699856
57743.621569633586
56730.18886807444
60751.079812913165
64050.40711384242
63583.92366682302
59827.33361794421
63681.39604333708
59223.41252696058
57817.6966082015
63839.64358932864
64971.477543550725
56754.23129333232
64244.29835771534
62907.52140810279
59867.33163039864
65409.93024168353
65657.97423862408
56014.77627436969
63222.92071532496
66555.12343895521
54644.549787424075
63719.76921878353
58375.71436258466
59733.22386711448
63830.74539139594
63656.84976190297
64598.46182564738
356510.19947871385
374385.1756737596
420681.0897579225
379043.9560953297
422390.1190564689
381957.6029380527
367309.1384625032
433544.1049283505
372030.24037537165
450688.05150639155
450761.27566337894
371332.97392627125
463051.8048994946
62017.76683838155
54696.335544097616
55445.85382199652
56602.630997371765
64317.30481252792
66677.48622587232
65920.06937166907
53599.15716770081
65188.91814838088
55574.99347972959
54660.0387707264
55151.2306133442
58040.44371727972
56636.352929566034
64710.84004995479
64693.924412983775
55347.24624117166
64761.69975087331
54259.548865720346
64645.22705326345
65199.20281797638
64515.065922081776
56532.56545666718
65016.24535038683
62587.68862767004
62635.34669303601
62375.49123067721
52818.23522875348
53599.837070172536
66540.1198436144
62615.393976345455
65106.098759696906
63966.963967178766
53493.75756497136
54446.134221424756
66487.51715737909
371480.69375719514
404166.61904497136
412557.4718749622
449922.58910090354
381882.8254920716
463032.23637718614
358116.01853644656
476428.8596452691
416701.8023801091
478397.22593735164
420747.78156091715
433203.3510727327
489265.8103212677
68739.94368448698
52643.45679114426
63731.49671901048
64208.73385699331
63011.60534443427
52300.67280933942
62811.25757684479
65454.62470882496
52320.61624198493
52600.625720410484
62919.559939774175
65166.895774424185
52926.75554601152
53470.88450687912
64314.58768225696
65929.40174447691
52631.82516248
62708.732117254156
64059.662396844746
64716.78849273473
63896.2826035557
52240.91024446554
55377.752499037844
53327.07667491773
64385.11156798536
54231.8736660247
64064.873299291445
52837.89012783974
63675.4195093951
62192.19484383342
63510.62769738368
54137.623855623846
62385.06997082357
52284.73372047713
64566.86228358244
52550.974598098066
52355.363743401365
64571.478559709605
69051.07947994591
67170.4169402944
66049.5324900762
381305.6374852392
422255.92638641834
479097.78079570964
376461.36486596434
489563.1482404532
500651.44639037614
426131.97179582587
498160.26855168777
414667.7023667164
435758.57565887074
434488.39028169453
509131.8283496524
65401.30703256351
52539.9669180691
53119.81200286255
52273.95791829103
67033.96050739918
69609.01317001163
52347.98340339803
63663.33234623562
52265.85117144237
67050.34831165192
65499.23734852773
53270.92333692323
52480.368751051814
64527.91909126445
60955.66077946562
63067.80707024263
63737.173027460696
52566.480188998496
53388.51994273292
52274.61697304145
64807.47497456915
53152.70442560916
52535.064963272096
64262.56949530106
65746.59118364305
52514.261853704236
67014.2470040168
66189.29088732699
54825.062218942054
64808.30643142599
54087.3327451078
54254.83990034667
67307.18240232336
66561.37016327471
441042.767462821
498780.2773142587
508693.101618031
402112.0833204735
519438.73372090206
425092.93276560795
425351.72927251796
527974.2356447359
439351.65910312807
525029.5841026683
62295.31141069025
55022.71464571878
54025.59124094976
67126.00580462482
53061.6349730631
65525.7587322039
64396.24545677243
61585.56925418384
52663.455715492746
64462.53494336869
53316.014627361226
61637.71544285378
63255.273879438086
54345.645171319105
63688.96432810619
55778.40085587684
52625.76641447605
52414.69423935313
53287.5870677183
65188.82231989602
52519.22170722078
66953.88060808678
63645.763840585394
56227.78817297646
63765.462927302164
58226.63246763023
63658.373208771125
58123.45898208595
56834.87046012631
55450.09556902298
56772.95071547091
61796.508520652416
64559.929797930614
65089.603908562225
65757.50996341734
64909.646461439945
63090.78069171536
60614.02603239494
64725.6146285731
63673.8621037593
58011.91460910727
65380.81929016339
58567.98355835356
63292.58764574315
65360.356905099055
64921.22535968275
65805.78664199718
65518.97875064766
56129.96203187728
66685.14961918365
57536.02560817471
64986.230219608085
65735.89304197079
57594.385293702195
64001.37273934563
65712.73783895804
58374.44832578298
67098.71207453466
58416.666179632004
62504.08475798346
60059.03103057003
62990.53086502276
64303.26337283617
59031.76017077966
64093.884761606314
60291.60666011944
62663.46349380783
56170.00133470171
63284.50116071171
520979.92171124247
540296.3202526727
427286.8418944089
434777.7022756891
541163.6118077503
412732.1893789756
412086.5023427978
544322.299729821
424046.9506901949
545862.1218694837
390204.623392605
432259.56220868585
554608.3538011254
62215.40743044922
56285.60635054827
62949.005792515556
54960.80582704328
58950.82745572511
57779.11004272914
66172.12263571433
67134.05177820752
63307.13552601186
57597.34977603007
62670.22666954774
60595.837215752035
68430.00499692724
64431.896539914655
54168.19018401625
66017.80858544995
64861.067857003705
66100.11884934072
55323.63577316442
67876.93280261455
63576.104980413
66275.87516270674
52593.46085004116
63470.88865281958
54147.93777834005
53528.89920791035
66521.76003556637
59580.15104767195
67821.39091652041
67001.15923988936
59402.09040557215
64866.87821004472
64141.77647073508
65685.68422004132
66598.26809875922
58122.367713438616
63416.63033720688
55199.463018018716
64238.10349713305
65648.19279617442
56820.17100615099
67219.04230870673
60716.283250625704
62936.4801200037
60481.39594114703
63830.29654547386
59961.96645947253
64162.32735062418
63386.46586303259
54239.29070735046
60311.786561947534
60364.42687676029
62919.42997124922
60446.077346075435
64856.43284438903
64799.45471422054
57802.55573716199
65150.58906199256
60019.651572969924
58324.18054373312
63222.295524482026
60429.71267371527
55385.293491870674
60217.78554044717
55888.377540487
63573.83355459195
59631.13350209043
62933.00183277636
57233.48162713034
64369.372501175654
60105.38647427626
65279.249672379985
64695.11543035384
59957.11649455409
65631.5743255778
58839.151104093784
65032.469737208914
59437.79628689902
61114.50593283634
65435.283077948035
61007.54640815647
61149.777734396535
63560.38627271326
64900.98160815192
64261.72397826965
64112.8112234673
63005.349289798905
61718.75673564635
60748.13901074452
59870.48693944232
55149.21467507201
60079.41793654925
62792.27425677781
59882.47196337427
64829.37844282944
64474.4813688345
62298.697099258294
59670.472248630824
52976.37923260478
60186.08908956636
63786.75275565666
63171.41811455816
64909.17925690458
58060.79816393476
64006.32391407012
65559.3967177649
59929.39193074133
65200.85561744666
65119.88464109036
55024.17079872052
63633.80038577001
65307.81911828254
57766.61565082628
64481.80901759176
57231.37316185748
59774.40902523351
55869.414536256474
65085.1098536571
65537.81911733288
59932.91586038997
65334.85672527206
62166.15945484419
64958.941124278506
61889.68738942761
65370.77672874455
65245.73368448484
63134.83217118321
64708.087803315386
63009.714162716664
65087.468415666415
65854.35666153693
60177.4474914423
63579.75332260792
63859.71044678768
58914.32589819534
61301.63835416425
60106.059417320575
62078.427859839045
65921.88099632382
66086.53818541465
60030.1614008539
64413.69930029052
65287.162080433125
63939.581591285525
60190.2668666784
63673.01313703627
65052.09985228511
65311.99368236414
63016.16953123823
58694.23676030409
65030.77904844348
61701.17932525829
65099.70590066659
64304.45175580376
64725.31657675931
63549.90957932479
58628.35833919187
63737.0287698691
64092.93551917586
64597.101433788375
58434.3850755739
65676.66726379942
64566.559500845826
63182.803552316036
57980.300306783174
63598.4109242866
64859.10711395484
56744.31090405938
60571.449841484195
62902.48830397769
60082.11376061837
60560.388099431955
54937.04935675142
60116.82062607026
62949.40051248505
60028.121405427744
63280.98217957122
57506.78111037935
60206.551017385165
63030.596693490195
60182.27643596375
58041.17016268667
63535.70268395057
59602.07561488127
56873.66092806875
56533.46752678772
59248.50305302888
59402.01869852434
63337.776537889586
59850.21763379494
57724.18302022431
60184.34925976493
60248.3782531179
52956.15537814125
60627.79682901361
54972.39588624934
51941.13379155285
52488.155962186014
55101.855023075856
63890.53517055659
64853.551209771445
63164.78087728301
59900.71731243562
52700.75591733374
60148.904175586606
60008.75129022842
59419.31574398614
52176.22200329943
50614.39520724262
54572.37038439035
55423.7963598846
53904.89813884818
51196.07404788024
60081.02647771322
55730.95043048648
53181.723883490195
55175.78672202672
53311.960001621585
52422.889617033994
59804.75508526729
64893.967173105586
60294.84847433787
62791.39610768757
64246.3047060978
64521.54320284675
66017.42617120751
66312.07892955994
60966.60705363852
66892.37278141071
65012.46983187805
64867.85658814921
65277.55522115265
60588.59278157144
61792.05485693839
62680.78832747529
65602.70673010564
64032.319124683825
64275.05240103364
65453.22920378595
65758.03543775917
64974.26701621145
62894.012606302895
55442.75651568269
62066.05352427139
65094.56769111905
65283.307889097385
59857.668036260875
65660.07580548205
65032.063566291385
60479.09653633454
62046.69570652494
65710.51422188194
62159.50752472054
65209.84497036957
58046.995549217965
59344.52844098889
62925.55848427728
65617.96989618757
65375.40172075226
64600.98483461908
61404.26222997358
66496.35096078315
62438.78958718509
64489.5934496458
63412.785264391365
65102.234859026496
64538.71547403252
64949.32705539392
63413.316153345055
61759.43732576149
64314.405937952084
64066.42880150295
64422.90565498128
55740.749601178184
59696.90220907858
51701.842148866395
53741.8602377782
51856.679919218506
52397.40627693863
54465.626790138405
54943.27785797425
51769.80799788498
54772.64933365483
54613.513467624594
52757.534237234846
57593.762904552284
54294.55146960918
53265.94656680067
52566.23628976974
54336.81689873349
54151.29712749211
53825.00401797514
51644.73812175381
54561.26549635523
51516.38092969671
54947.17096132516
49875.58719251407
55649.492712451225
60049.72043151839
51710.25646715603
53405.682026795155
54318.182326462826
51894.30325861139
49883.37787914744
50757.69910690324
52626.17426879242
51812.824549135796
545056.3242777459
582748.8075601555
615760.6377425048
618877.2878429346
618146.2299270349
609675.0714095748
465544.47816363367
556974.4067177464
455383.09743971954
556166.908904956
472399.15102133685
550352.2011862352
432075.5784121472
469699.40436048846
563752.0040771444
449057.8807396594
570750.213263116
67138.13869474044
66623.29315204835
61894.16518844222
64737.60888278609
64038.100636609954
616471.069329217
615002.9909114985
586962.160143964
618334.509925798
597962.7538022565
624034.5672611721
639131.1384447011
573141.1631189078
625371.3864244617
637064.4614290597
656976.580647815
600852.8088555795
650553.3210781371
640552.5193661624
571379.9678242109
652507.2940332505
561786.3015627677
599643.1104074111
664471.2578616114
659205.3682116809
57225.469304533195
60306.017654941534
63499.607992711106
60004.096501053944
63461.69293894257
58098.16302588984
65535.53783484759
58051.185513913806
60166.44651589657
55831.522289041925
55764.20008917106
55563.67822116648
52231.401913302456
51613.64826544465
61389.74995708512
64976.19249003761
64757.11302914864
64749.085241834
57692.522211795884
58668.49393839777
61830.362815294495
65413.710067431624
63703.814768929435
64465.4297066115
65266.93925805967
65366.78373593474
65982.3327850132
59171.38839669252
65445.50368566252
63397.602586954665
60610.62331415161
63163.90381777374
65595.8954167651