<?xml version="1.0" encoding="UTF-8"?>
<VTKFile type="UnstructuredGrid" version="0.1" byte_order="LittleEndian">
<UnstructuredGrid>
<Piece NumberOfPoints="11324" NumberOfCells="58554">
<PointData>
<DataArray type="Float64" Name="von_Mises_&#x5e94;&#x529b;" Format="ascii">
803658.8090946827
649049.8913979188
849129.2450406454
830249.9197560098
691670.388878885
865364.6280596225
822985.1713630742
820121.5952661518
817308.9415080835
746163.642223787
585390.1952613388
756329.6938881561
881555.6893029178
572518.1588884565
669887.8448102959
889012.9506110456
889638.4937639816
583344.4636763248
561673.6827385917
652075.1487467902
886342.9256915274
836413.7637022455
690788.5214710181
850856.0074891344
707194.3021411425
906705.3574298332
909311.9137743337
584917.755930852
737216.5673342993
592115.7068845088
459179.57383090095
476055.6035556668
907478.8337384366
629731.1647503932
853538.9133828046
509807.36268418294
652184.254021776
658466.9784296894
530862.4560810799
459947.53266557853
576952.9658261612
626603.6085491641
535792.7844575754
454389.77799740096
614672.865165402
769908.3022492292
648969.9408277823
721696.6383449257
793340.6396047901
592471.805586958
528922.3904659802
528752.0407227044
640513.0187302273
574222.997060192
491878.8357420915
551150.4305570764
535043.3980439123
676913.9872131484
547951.2884355923
448688.28223857336
550624.1209237737
449460.3989845092
444166.3555997139
435369.1078726518
410958.18983278994
409593.9122544231
620948.4052529604
618175.6020949035
440227.81233789626
410538.48475202284
549911.0640843584
577502.5383230787
921995.7834892931
583732.099826688
403711.47893530835
370508.2202351619
337756.7086256263
446498.44885496167
397346.68684025155
418914.6060210789
406656.7244552952
443826.8895585072
378350.0004028587
386092.2129039325
418789.95486389194
411121.0860508923
400392.72115542606
369479.94584841677
908765.4143193004
553450.6060567598
550116.8816231494
936989.31440055
600334.610046249
948518.0021649636
960022.4839062546
617004.3463420443
941256.7761774148
863525.4330649215
619075.35508966
919104.4884301372
586015.3216539768
618733.7614256076
788383.7825206368
645639.6615718292
560765.8901711182
698519.5485704675
535789.0718357299
484384.8194337444
610556.0170746457
520129.53060643526
662561.6580641874
876346.5213325226
645276.8386485575
750469.162005789
504596.3496304205
296067.1467724201
314083.4468948615
318014.483287794
324330.54797886877
271914.09074826224
223917.21191392466
252129.1579629382
234624.48646878306
231634.38297448118
204357.93266732353
154436.30620698992
169810.8140952899
152470.19458205812
417037.45500213274
401603.3590516827
468151.8252616641
251532.90488947884
348269.8190316176
248479.73091768468
369739.0605643014
216764.4453194822
431337.81595932075
488216.384536786
515640.43362614425
361221.74005969585
266738.5377071259
316793.26768228
301232.027078352
277976.3547355072
348324.08872606244
234689.21193417662
201432.40509340123
302960.215216539
352169.4886234094
245227.4473975926
632801.8580306051
938218.0121271203
619495.4563633809
862903.3787876021
593680.9824138301
885057.4338728117
699908.6846520841
894005.0923562553
774094.8267718477
677108.1960744658
952658.7072639352
978741.5338015388
611095.9100628945
392106.19526660035
413477.8080309381
388865.2308143224
436667.98483479535
391370.2846517043
377449.55069720355
366284.2752628179
413468.6000732879
364172.7809547726
349529.86254496995
358507.48105546035
479841.9473477542
470986.8406247094
722580.8465154738
828220.1250328863
483308.36159721966
554379.8374907251
984033.7380289267
672267.6578488499
951715.3885679012
977318.3296120334
683867.6095950098
749434.4954433858
910153.0285018025
555521.4154158678
617257.1745891796
745323.8420783287
950963.3542433705
990715.379750712
641864.7690317526
463722.3471151701
540984.4034738769
391962.7641676015
521422.7478748054
383698.83456010977
350882.6395170558
775324.0352680619
543539.3773433918
551994.0099540153
305876.7450737328
258020.5051895162
386428.8129748992
270062.76543245476
396235.48191410955
358578.09070535714
338022.4458019747
601217.2755194869
805091.8050323686
814892.7847070459
537129.9171601196
569228.9510824217
731090.7773798547
530175.1349357829
645102.5666371533
657513.1447585416
518136.70592477056
660579.5074919815
512738.16081955255
452475.7207201065
501547.7872108585
450140.4802750692
510217.85000737366
410177.9054022398
378592.4990071745
325172.4982272753
274905.9248519185
243484.21971119184
201235.9060007954
272404.53984351235
206076.23172779425
289929.76185857377
260976.69615259962
200159.9026798366
389584.67370203155
394038.62563500233
508270.5946561198
512040.039037917
459611.7218228758
622203.2215496978
457491.8830596675
245337.22241001498
231915.43396971948
233497.42982327545
181159.82267043274
151552.19098228932
178250.8607206337
191272.2515626781
296493.2658575895
206229.59869180212
189340.17192651416
126002.04623358331
166671.09457777595
168169.7364181921
283993.06833564834
311271.85740753496
309953.0931258953
185385.4798975058
237584.7487653642
242042.58371999723
585495.7803011637
615487.2848416604
951145.5281329015
674801.9518575052
1003276.0774778338
982847.6922839151
917820.1569117295
610068.511985918
816337.8396839383
884209.823438257
717443.4243139105
976987.7085117975
673557.0820847853
961584.000435156
592263.2573381435
598962.3182532572
633355.5866682327
358344.8551939699
348052.52648801066
343024.00118324126
317711.4194401248
398504.88936571777
617500.5421069121
329547.96291179286
506118.6546534675
821606.5206202716
521980.61582472175
766192.7501648092
584761.1827470723
502124.2116610215
414688.0503288504
468022.63990734797
406542.94386738125
624429.9209175276
997403.1699919136
652888.3982659822
953876.9413129116
759172.9903236633
979448.3828804746
600090.1170819263
704589.6973964191
712477.9925618597
500274.07633654337
608785.9955568514
823060.1821841339
586709.714297635
728801.3593586183
543378.5446185638
509983.12595565413
525043.1583211703
753132.2235582444
909667.524492268
918728.3061316496
693492.3626620063
893280.0926989675
578046.0810316224
777744.840982787
649743.8300225456
680480.9873573204
574047.5961126782
573253.3665380111
532996.1210948352
516600.6294164458
513215.00363057107
426765.8378244709
387694.9201438286
389210.7955804636
494449.71349358297
446381.8200893352
407322.645816264
385035.4265958994
452241.81536187243
497502.5812275562
401651.8197441144
404429.1164703767
380837.8928668602
382104.7938832479
264944.81382626947
269445.5932019108
282263.2659980792
202362.49377390897
488783.5259300455
439978.3544924984
300143.2175302014
308612.3189283376
215512.479292734
200654.1812447524
113909.83896807494
143583.04721694413
127792.11514385839
169157.16897019028
153828.65552991384
171077.05685378675
280443.6129782466
324451.211420755
332169.7320705083
260446.3227752949
218310.13001226968
136022.39408367398
154861.09427614912
208347.31295325587
154787.32168607807
633971.2105262042
738512.0981395203
469892.48369634186
524355.6214224572
668987.9534468129
571724.1632327031
485380.6079966707
828961.793503512
554654.7445062024
571644.125593877
808100.9559059227
670001.4713876175
944213.0161036352
979348.4267005166
628944.9558347164
335681.0490258953
432746.7054540856
449151.2133611072
426346.80711593234
406575.8340030046
360996.9951368737
417394.28234216326
386042.0099437626
487833.09773624246
445411.3272331179
382849.1476228405
343592.11225800595
338118.10268229916
341331.4068683411
379009.194438044
595675.473865193
580659.3326982461
869286.5837197766
596353.4840659501
559962.2063979879
401537.4241784295
370828.2393508305
261146.47086001805
313996.43998174736
253704.98951038587
360291.0656538022
325389.8511285214
253692.07592049806
346170.1676869194
199348.8365432988
242710.06495938325
192256.2545007708
331795.9270867136
256928.08019514653
338858.9835046378
271997.9618410152
194628.61478908054
197788.50807357748
316448.73299332574
158438.46176212275
108655.92493135424
139982.42281182183
122250.72427158104
151789.75919189965
141082.36711024647
164096.89094284546
109483.38684944343
187153.24489638684
148641.36554503205
135524.18987492967
101054.1087343333
142442.97744995818
735014.3521823299
512015.54552326
593490.6887335385
370882.3812051823
334350.9719757322
458522.26429210755
322634.20874451555
329302.5169455169
435511.9493343968
353878.3065378055
330552.9704989651
426052.102761136
446604.3970769878
374419.98654000805
235447.11970086733
243799.06870081884
182585.74933197876
437054.29239085625
372094.22513522743
304191.99841533345
246299.47472582964
497631.3219720116
634931.5163084634
756474.4386620948
873592.7898057058
709497.1183783227
645950.6080753617
499630.3711758221
555354.6988041165
822309.039066901
811928.9786719391
567103.1014371164
643464.0449328809
982199.1536549316
641948.0074457962
727043.6373778963
783743.6483427538
653495.8927390997
941212.493141662
950848.4891624073
865602.2457342701
923473.2611171886
740194.4039812445
1015905.335617326
967453.3599169027
301869.8136231402
306883.9533263958
279944.83707917493
324646.5600867506
367578.001213659
371068.6541060625
341790.57715368614
333906.4391346666
310729.75236659736
295206.97780288995
297003.6852325363
522143.2633631011
529482.8772666362
734175.2225630155
726395.9842348542
725264.5590136144
690068.5293095008
124311.65336516128
78412.38263395536
92488.14168077821
107392.73353303068
53463.70973383853
61565.45491094123
99189.13267982818
47803.235177304334
83541.14447195253
105711.10234336667
174794.0950742106
250725.95893447273
152966.46063572768
169888.48947952982
248653.69707634224
85590.68280551181
158705.2682699391
336467.3526813901
272859.3731897135
440362.5709334502
404669.4030810798
120527.74729610546
119365.47156132608
609096.0283892443
459870.92216030095
371211.7548256323
329344.8896264059
523624.4812506066
608277.3545641991
191133.77323642457
203663.01146239287
159661.0566050909
296877.9832558155
57282.972862898096
125329.15677025616
116702.61039517389
167188.37191870296
785760.6370224132
748156.9797395613
743758.8547546092
777094.1022738602
781702.0900578905
783776.4704716242
267750.1393632628
391679.5589511027
428390.18522692705
197527.09870065606
205414.42950903124
318030.9326539025
269999.98039482516
163376.90236184618
173414.07005271132
145524.28304965358
158117.91714757754
173502.27281604955
228157.06152470206
359672.8328123225
237513.84682859312
289438.4334185124
283334.3023330669
279685.04050350166
357430.04530969635
200028.92724363247
219278.84367320355
335157.1370498999
346125.3460231443
775648.9049289307
772082.1932777474
729819.2672997868
777304.4279989687
140353.84387333432
152539.1088868091
167601.40070167996
173402.5159588457
172240.9624727005
154134.3107724563
141532.23099108023
135706.91419265547
160110.78862815283
1340906.1488643158
997523.7868100714
1349727.3164472983
1374081.4012970892
1369254.9997672434
1324380.2032077357
765744.5163836435
766601.9384803325
723414.5018494922
773181.2803858202
736078.2856321512
691955.1903938706
677699.5275487368
696462.1565242279
688360.7935238555
733953.9300446152
740606.9527276676
736568.423918785
695605.6013257435
689393.3167657767
703223.2677123056
708118.3948716203
742054.2335488129
743139.7878569326
749970.2225595583
725542.7035481477
750066.0246203354
706943.959953667
758150.5007377737
733366.2258878591
760786.7619675649
753759.6063152762
718706.2419463007
725647.77166706
1201577.1507151488
1319171.6043089358
948347.8210973229
1247910.9525108426
1424369.791319208
1421310.0795851627
1362562.681237315
931004.1300212714
992774.8896166892
892186.3439446805
1029813.5124898112
1384824.5559903695
1249988.5863955778
1238715.6161694627
1009799.083528337
1399466.9876882555
1224180.9178572244
1024401.3562660035
1214613.8760859168
898790.0687415091
1051468.247566925
1089816.5788593476
1233418.8228483896
875158.5013971234
877799.5725951935
999401.9779446687
981256.9127798671
685117.7483751803
703821.2182470319
756604.1881140543
672152.8470868731
664832.4930533262
663080.9320917545
304543.58147145004
372873.88457816036
239638.12694130634
467031.46038706345
423552.32163105026
180530.31234371287
280156.9325420395
242044.4653418093
245885.91240587988
174459.88370800548
309990.7447130308
322067.43847055396
419848.0355569387
373849.5159740813
309307.8524357506
606777.5110579052
697944.9824022978
354137.54453079664
301207.6980818715
225383.14723800783
243763.30291359374
214919.92187806033
171688.46547890443
327642.0591191725
411460.8668935728
593753.947906814
502700.62211330567
350858.6137833717
529335.9177296448
610129.585341212
739321.608386656
356100.6682722366
465706.75880864356
605207.4795548973
546470.5018664959
657350.8933337047
926179.807177086
706977.3329972122
970098.0603757786
896336.1723309975
818004.5001507892
676248.0814133527
955461.5215911166
270035.56311043946
255685.71197730504
479392.9596582154
454607.04158100794
486296.28530420666
535241.3014414423
666133.3774535077
958202.9271288804
1001062.498061735
920439.5159696742
738628.6758746404
948281.1477296455
982835.6307829407
605695.2603741525
633518.2157581713
576267.8550815735
248625.85002065604
236917.4624322597
668514.5472953803
645162.4485673034
652174.3144129919
659712.3198051205
743252.8739078618
716492.7970979871
274697.18399216305
319175.55975882686
290217.8165694286
291431.6737883043
260296.65810451595
267682.00411647727
243893.9501315359
234258.1323196586
344441.0214261782
390690.2955764066
269350.1384472694
292823.12434251176
245711.79467704883
648502.0923648154
646755.8503288656
635991.3474704364
664333.5153059012
705760.6446093569
656934.2985126469
646976.3744669077
613158.295721058
636530.3038868108
638440.3247893568
625170.2619113841
624661.3706593586
666828.5116635137
714525.5731316912
684950.8440838323
696274.4708629163
692224.65420803
704505.5637541163
707885.4346120491
1005320.36141303
850053.3098536764
737051.563742146
1041873.0118091102
820387.8052451042
758754.1421526443
1034708.2385897744
797951.9208189668
1043060.1021631105
842379.7408507311
803360.5586979236
826344.9792258466
719166.7086259474
684802.067070449
796339.6691936872
760723.8107432513
1230754.831014729
839445.0931480246
924184.2069349155
1355986.2855502455
948093.0447230296
1064528.249775574
1417634.8314118756
1003933.3396588156
918121.2159592046
945123.8246093094
953047.973319503
287419.85415129364
469951.1382519423
338558.87355387857
457594.025892824
303332.60578677116
151833.63478048457
183457.26186476302
300793.8655873924
163103.504606936
281837.9120409665
288325.9851022654
679894.4354565224
440756.73462960403
402013.2734383627
663464.091566049
693255.287789305
512631.3326574098
829185.7483950703
592203.8466134033
478975.5375289112
121599.19056565495
98499.92419471749
104167.87018973319
119591.70186789891
123000.38009893049
130816.95151981589
161537.3456697262
286916.2569783932
174647.99394530675
190831.8119464647
435865.99062924495
301927.58302187576
223710.81450672608
125278.76680327319
108109.22441213348
110274.99225061922
588465.8039089484
575484.424238247
562386.0889473393
666913.5069139539
489854.1998815584
375848.1620359775
360805.33166416944
506512.375952582
478962.2129002836
681514.319672333
548323.7898789588
877221.0462155951
682824.9971926394
663598.561776662
832679.7258599005
1049069.1330606088
845896.9817975995
1188378.732939746
893450.1976360441
652314.4521800918
728288.5395237668
784662.1553345018
493313.4009648653
190017.25186246439
237365.58346766882
257865.0885092245
372815.13045318745
668502.9785543043
204395.33871020778
684609.1957052376
716939.6469577526
770160.7210311536
733237.4939718106
732264.1941499247
774305.921620368
690747.92431949
693944.9564340841
460368.0488225924
560291.3615515413
1059016.0224797674
863130.6374139391
1175659.2908678597
1009629.4772965204
1246118.3632181552
1321350.0389486097
1300683.871464678
934833.8205498781
1300554.5283382165
1163091.176176673
924461.3289073431
1248481.6384253723
868887.4534496441
900030.5015017524
1133086.578909935
1255723.023422011
957327.0960786862
907204.6354210972
1226430.014666008
1241573.6294637737
854646.4971413248
1198236.1854528666
902512.7845852223
1115779.234973009
1062230.9930672455
907224.0319529597
1170459.5129154294
1213915.181316123
1032139.0526189618
912568.6128225528
993740.63947518
283650.5506386511
303747.0367466446
351365.81504178554
345183.9555157522
519653.5296869406
429317.7768003039
496915.729428746
528203.377332189
459443.4736449274
502921.07037056074
427993.90780826117
691485.9947345451
469146.9505596458
276299.243657416
360184.61998368206
514917.2705526267
672170.56712589
859694.8331014527
1046713.8744242825
732189.4768379926
974626.9544598198
180420.58306306385
354103.19963799417
380599.7528168594
705193.3943003915
514509.97231075866
860429.0477890362
728600.0829096194
699756.632064499
733173.2569002387
693401.9483391895
671366.6125546843
767181.4983036132
696115.4656003331
679277.1063492051
723583.9626520734
179169.44196338372
146215.28782221532
155780.4164089701
972449.3613053226
1336024.6877988647
768768.1760406696
1011110.2093073133
856287.9635435061
891827.2979657153
701250.9515013425
757545.7088367591
764324.8868927031
702226.7454450721
765542.0463109809
681082.8592223163
741955.9845726229
748660.4460052531
739525.8978496192
710787.408047943
754378.5866538871
679585.3963780382
661553.690709743
710591.681554524
761778.7269610467
760827.0773085846
645812.5251209692
647673.7927128681
709819.4807267699
669319.9352694274
662850.6701786728
660806.5263506306
702174.8001500999
800758.2736164845
768581.4446936703
756178.0601243922
815220.1913440176
757623.6487883496
806063.4838506011
754917.305740661
806712.7281179636
750257.3450079844
688221.8356952242
741206.4198911008
655892.003974012
743550.1514585522
643050.0877102381
632055.6118994833
618743.4095850247
639375.4583799766
613412.4684047253
644870.6704733323
638235.8576584526
625787.8582428246
641806.6760975798
609990.8666813562
636678.7045264494
460273.9111217627
360669.4236449668
388182.54299151624
534682.0255465697
805688.2271661251
954939.7373312287
900764.6159725469
258190.71653674977
176108.8509263927
266488.77903292805
422209.19898434466
521890.0057627194
620093.5962518196
236428.0305977461
219521.63429291287
255105.1225690389
242091.42362742007
176834.0387774361
270829.2112790169
225043.8519604926
347540.60389258
685624.2119457022
803828.0680899086
898720.63174135
890080.7317435117
805378.8681165961
893788.5925813033
815648.2679169247
573168.1574956208
567065.4674375829
489408.98735850153
739982.9574222692
640468.296364972
482293.9549494226
331764.790904322
339931.54405875475
328590.4937198988
361245.4921136909
532351.213036786
397446.2472813318
586186.3606477665
695639.194869321
428692.2410607451
456738.9136379848
400914.60330669244
601469.29519522
759556.637280925
937525.5449797179
943584.9604637902
569687.7698366941
566612.68547332
537149.0839045196
574759.4381819258
975949.886078679
609582.8427622333
992587.0969835729
952139.1830844257
1116417.8786123456
727043.9948177296
859032.036264753
999247.5958667906
722848.9977798723
962868.9289414966
915537.183348528
885629.1163164485
863318.0712743249
219125.85170545639
227926.03226317957
561672.949245391
576221.9605196175
504343.49591355736
615056.4864376993
614773.4699651801
201867.33337640736
204824.8677695585
207404.62766508176
200736.65852790794
614314.8380270608
631785.1733782165
600196.6142624518
625373.0505463752
593481.512036351
636664.8278312873
866317.9752026225
1179399.0003557543
1146610.2759917255
1080617.960724104
760789.8134316531
666106.4968570636
682931.3046521229
657646.3339474794
670047.5603794876
676603.9171072387
669745.1118893829
663605.2074466445
663289.4666642628
631526.516911207
661453.7110037224
663059.3196582162
663593.2032600758
660105.8583000827
656212.574964951
626515.4879591314
649263.5387166451
578923.326651436
229229.31168784742
253535.48006152164
273048.5109117199
229107.20619445818
268488.66297435923
237239.25562059612
229680.4533961996
204490.19824664708
331868.06973314914
342104.9037685964
369095.39556743647
495082.5704280582
486985.53678341745
364430.44385981094
294253.92093840166
262025.9697131266
648709.5733297342
653150.5149543564
655687.97423356
650165.4188800026
639535.1488215604
658279.9487581573
654207.9478299606
627224.5783351953
644160.8555668087
628072.2155312328
641015.1297147352
640453.3608469116
616108.273241559
650884.5483038585
617570.3943918118
652522.2565899969
617472.8055755347
659387.9659485001
657312.8736756371
609162.1759556643
654972.3170959915
635155.1000663149
669041.3848598556
712378.6658240398
724645.2761868561
692158.2497146745
760649.9067047017
756592.7662308413
759546.444033956
721110.2095945434
767706.438470826
165815.5307210233
286657.94967027684
151103.97182904193
146861.5481052475
139676.34562377378
580598.2099954615
717689.1960466887
643089.0435697224
878863.6702833927
601654.4136334233
858471.1045453666
621427.5058059309
532883.5907732238
668085.6782436157
711489.5938061732
272110.1400146493
466695.59670798713
413332.41980085365
632475.627386964
258489.07267841062
351604.4120339174
684754.4415360279
762614.5148037558
744278.2497852859
701483.9631909323
669825.7087094181
650182.6412611761
523883.000423121
787757.9913560722
865875.0577369668
748687.8092066591
747935.879324695
737181.7164531343
738905.3440083242
488121.2969183993
691379.9089817173
811996.0870635728
822449.9233270414
573801.8280572637
856408.8764630702
683559.1673880816
667453.5259510142
510488.9567885562
847117.9185757772
667088.7052037708
594162.045064754
447632.2519043255
692544.2123249095
577466.7435395749
512914.25183876546
578227.8680600747
408242.314215132
460944.83427823277
709083.522328617
536936.1584057885
765020.6179713097
484954.97675174574
620786.5230926715
691754.7934758476
706753.7210720711
749964.0212296019
734385.9114889083
685429.6294287585
679939.678582845
601910.1132379224
637535.1833101009
614950.9858678739
654718.0912419927
710610.4078705474
605438.5030488967
603868.2954199425
645183.7590291512
657716.5462602752
591877.0445956225
594142.8015468236
654219.459405545
600426.657878778
650575.068026265
667231.7854234267
587972.0427969308
649769.7173904267
604476.926138731
607244.4291516471
468081.1975111778
700021.4882293321
618552.8491362942
598925.0191998993
611040.2303927478
905919.9430199022
578991.4359061924
572489.3519281871
817649.5249043719
475462.26136382815
524712.9946880162
743713.2802531105
924942.8803506369
607059.8434893227
562663.8591841279
941173.3369987635
312794.25661026896
386350.3510484314
520751.2243400854
389461.5842516099
579991.4321839259
446651.0703871602
648091.7439385497
659206.8365016882
341213.6196443033
368531.13751150476
358880.9666471395
515441.5838679829
679425.7400046614
881182.102972262
927703.0937018531
562472.2446421582
795196.2402883779
644296.6277696223
787717.4789378177
874415.2677152421
803650.968420451
395741.79217727954
576843.3345051886
678479.2001411448
670469.0750003314
365828.3912178693
511735.1095018782
403872.4307833473
504196.10221678764
653271.1307465397
414722.4482611612
446227.6378431432
630010.6581309728
795857.1860118752
893237.8877939819
903137.0269792555
832818.1667519662
652026.7596154476
904422.7675744479
772839.0465920599
604785.4504434764
697013.0163126948
546833.7589665914
478526.2090092909
751376.0677536725
522534.75958862033
426509.09427902853
459934.4782661287
503830.3435660438
511255.4997307099
510387.3205084926
939419.4197969323
641206.1079437601
975372.6456644296
599013.0966504309
577699.9539818687
711192.0972937105
1015745.2341181161
668549.4510158203
700186.9362267377
1089667.412553013
1033018.4139310125
693701.4770729246
1050891.6673856045
669010.6507153509
959596.8414934861
867989.9611214309
1007506.6567161507
764466.0858549778
1080529.0859193725
695313.4297031577
778300.0416661364
664513.3368841046
989457.5320023034
1016793.9270563509
980501.6885653218
625320.7746533825
745475.3325207791
956340.3375818363
632059.2277724606
634317.141552003
612505.748923624
647803.1850719862
420907.0148165209
534893.0419965665
728795.0491390916
500773.4290454401
562247.0775968882
518926.5279020134
799570.5870785967
799199.2596624922
595955.1356341332
568352.193788181
654190.3905232189
650796.2874942806
558172.7556087421
506413.8337347551
188828.11182986715
160793.66220078472
161848.0289195315
180407.33657211717
201456.8469497202
208202.91761825656
158290.3464331831
155897.66586660658
172245.21652896903
151495.78185340497
185915.90012302966
172938.3677591807
181192.92325290228
180006.18318911493
166542.5191304732
158881.09684077316
170532.6184646991
172565.5086376105
145087.73118523942
139121.32899639395
579741.5060928656
568682.1234873703
617764.0599200967
654134.8957438468
616600.8040184665
574693.1744534331
600204.8629537579
642391.7648104442
659954.1605675576
659694.4406502425
620830.3916171391
664674.9062901373
623699.0552342375
627649.5837870094
620268.0095930806
666530.5673565386
612065.0809166282
667879.6921051873
655692.5997538548
617402.083299449
661298.4230819708
594760.266812264
602990.9233889424
612122.1447886028
669346.4111862184
613492.9905047128
664390.6522811077
663910.0001378286
606968.1916597893
673992.3279112121
626238.8724416086
586618.4873187226
610443.8087583806
594257.4071541128
675745.0938395868
670256.6162215357
665800.7598114818
662268.0769353019
664656.9550662095
666432.2345122899
613209.7531150673
667032.6167996629
595853.0831818351
661894.9523474416
613870.6804046052
666559.9963700476
661386.8495589884
666443.4284808922
596022.3464492635
663924.1308386077
600940.9085200016
592500.1731519464
668277.5216186362
652571.6231121067
571852.6227634988
567876.0993367117
577862.1413635914
218891.37868838117
235003.04282621207
170551.35896043762
184659.5188009967
170325.25891979365
157670.78050655455
190789.1470548888
203096.52978699678
213631.54398697408
208069.51956864982
180599.33719858245
173766.9263134698
188184.7421581792
199362.48473056097
145888.32742006498
154823.78668295778
138778.75756777785
136020.48719283653
146466.83399694134
142425.13477947685
168239.72530109156
161434.47830456088
148798.32615499754
142185.62198434083
128833.44524264244
126689.43885124703
615526.7317999154
589125.3323903583
607597.1923989847
667472.2668818195
609590.2699802268
660465.6013575478
597987.3655832217
603102.7484219663
602292.8382359976
583867.6323517093
613077.1309800572
681161.2809110654
668750.8050196499
666349.1879696819
568873.3430664336
423642.5417864727
516483.9773003413
637330.8627831632
590515.7907567184
698077.1065173076
619157.2389667608
626968.31169024
574881.2659384564
117699.62576908078
116795.37728368453
138353.02943709464
925538.369085131
602051.7652309717
981147.4066851999
590170.5708612461
582747.2829919836
916662.5053658745
923939.3408499586
546831.2186822664
596181.1092104301
964356.7060562541
608371.000112807
593150.9774104384
973290.5588697437
635418.9245716203
598578.5268970242
954224.6075780754
601156.9420864375
598027.9331401252
570251.6171900921
553445.2700018428
460927.5715583613
501770.5964580925
512606.42384762916
452056.13985088374
519940.72556392424
483300.16087298613
134776.1791131458
130770.90403132021
146909.64527414896
160558.19699406697
138905.3595599659
149703.7593002778
124110.32372312833
121768.53709110334
128793.83631142502
608820.9171487377
595923.1666837035
666882.5740044656
587273.9171696278
668422.2211701274
595468.2730903481
657707.0389446239
601007.7046245504
667885.6798912294
595340.2284184096
662731.9819867145
615918.7405770374
582908.1728580254
589467.3514919473
597961.7107182923
669163.5235506812
657399.6661156738
595446.2601973063
600695.4634967477
663013.3528116369
608395.2643115696
644309.238766879
579423.012175192
606882.2030843041
662819.437676859
663569.3073741684
606058.9303419325
596173.7909196976
602956.8256068843
641226.8148394702
635749.6061293003
645278.023195169
642983.7412223286
598365.6003507908
602663.973984657
588589.329022774
572088.921682299
578421.4974045976
575789.1482825698
610110.0042480126
644591.9640215177
578998.7608228492
583909.5444385348
605753.431361857
641648.8792890125
651919.7888213932
610762.2588340791
662785.0399420128
591030.5970700099
640262.9687162937
591008.2042971894
638564.228540991
597332.3281284618
633055.3600716373
574954.6168373857
639219.2309166075
638517.1715362861
596223.7232499898
577020.1816179559
631719.2044983584
631179.9027144358
629271.5752658222
626727.5712453375
628051.0224097219
647916.3880852571
598799.851655627
652549.7597826021
652605.2752904629
584186.6612431252
636419.5475619136
568172.0994137098
595454.0711578019
593137.2762632625
636892.6000291008
638573.0550855771
559260.4124696883
559578.6157137464
152857.27690425183
144043.5604043006
139646.27888235127
112693.3571418945
121604.68723161866
128838.00536938883
121454.79449186932
112639.85796170653
127082.03109967828
107539.78352027935
122728.93150280371
120209.26503311699
114767.14492296713
124113.76559885469
104240.86538275861
131617.5576325554
116139.86046863005
124408.76318046889
102636.02412473218
99851.56403784662
106269.02438705011
105101.88168763331
114479.14725631317
130741.95314350196
105784.53595188675
109186.55658143945
108086.33179271192
101839.35165917661
113729.70156884316
115543.55321220808
603087.6267088436
626695.2633748797
602726.0158240322
589955.2479506278
580993.8568023633
575024.312793124
592291.4237610011
590756.1322959209
621556.8993320987
625036.5002284301
590866.5364728638
620178.2786367437
624157.1023725364
587399.258200164
590703.1181421246
592423.7909968889
588637.0780341894
592263.3420939075
584861.0800784528
627361.6833566218
583221.3255406686
623808.222380006
577751.9102341669
623914.4508354951
621927.8881859554
622101.4426967296
563439.9948890911
620442.7502495783
621773.7096809002
575062.278427524
552406.5427891688
621687.2958436261
590933.7930929064
576216.3528185535
616530.9362721177
582176.0213011543
623343.8229834464
108847.93470647432
96255.91131696371
102520.31131574867
96027.81878760247
107196.07496228698
108598.00111875306
111370.95132298848
99128.25795793062
98878.07573903786
92090.1522413378
108063.0675538456
106374.48376563487
105265.02689077845
100357.30046282435
93869.18792703639
97497.8142364164
50919.58261585667
52306.749594379275