% Model:              15-2.mph
% Version:            COMSOL 6.2.0.339
% Date:               Aug 12 2025, 23:54
% Table:              Uer_4(线平均值) - Uer_4(线平均值)
% abs(int23(x, y, z)-solid.disp)/abs(solid.disp) abs(int24(x, y, z)-solid.disp)/abs(solid.disp) abs(int25(x, y, z)-solid.disp)/abs(solid.disp) abs(int26(x, y, z)-solid.disp)/abs(solid.disp) abs(int27(x, y, z)-solid.disp)/abs(solid.disp) abs(int28(x, y, z)-solid.disp)/abs(solid.disp) abs(int29(x, y, z)-solid.disp)/abs(solid.disp) abs(int30(x, y, z)-solid.disp)/abs(solid.disp) abs(int31(x, y, z)-solid.disp)/abs(solid.disp) abs(int32(x, y, z)-solid.disp)/abs(solid.disp) abs(int33(x, y, z)-solid.disp)/abs(solid.disp)
0.9197199206564574                               0.7499135739536418                             0.7479404778747352                             0.7481341945116304                             0.7481256999308828                             0.751177694361839                              0.06947060267436916                            0.08247004764588277                            0.09131780397068154                            0.09717361617235866                            0.1001092961871814
