% Model:              15-2.mph
% Version:            COMSOL 6.2.0.339
% Date:               Aug 12 2025, 23:54
% Table:              Uer_0(线平均值) - U_0(线平均值)
% abs(int1(x, y, z)-solid.disp)/abs(solid.disp) abs(int2(x, y, z)-solid.disp)/abs(solid.disp) abs(int3(x, y, z)-solid.disp)/abs(solid.disp) abs(int4(x, y, z)-solid.disp)/abs(solid.disp) abs(int5(x, y, z)-solid.disp)/abs(solid.disp) abs(int6(x, y, z)-solid.disp)/abs(solid.disp) abs(int7(x, y, z)-solid.disp)/abs(solid.disp) abs(int8(x, y, z)-solid.disp)/abs(solid.disp) abs(int9(x, y, z)-solid.disp)/abs(solid.disp) abs(int10(x, y, z)-solid.disp)/abs(solid.disp) abs(int11(x, y, z)-solid.disp)/abs(solid.disp)
0.9197199206564574                              0.7499135739536418                            0.7479404778747352                            0.7481341945116304                            0.7481256999308828                            0.751268008689224                             0.17267067824874585                           0.17906836180414298                           0.18833960949147543                           0.19331626664351265                            0.19560682055029982
