% Model:              15-2.mph
% Version:            COMSOL 6.2.0.339
% Date:               Aug 12 2025, 23:54
% Table:              Uer_2(线平均值) - Uer_2(线平均值)
% abs(int12(x, y, z)-solid.disp)/abs(solid.disp) abs(int13(x, y, z)-solid.disp)/abs(solid.disp) abs(int14(x, y, z)-solid.disp)/abs(solid.disp) abs(int15(x, y, z)-solid.disp)/abs(solid.disp) abs(int16(x, y, z)-solid.disp)/abs(solid.disp) abs(int17(x, y, z)-solid.disp)/abs(solid.disp) abs(int18(x, y, z)-solid.disp)/abs(solid.disp) abs(int19(x, y, z)-solid.disp)/abs(solid.disp) abs(int20(x, y, z)-solid.disp)/abs(solid.disp) abs(int21(x, y, z)-solid.disp)/abs(solid.disp) abs(int22(x, y, z)-solid.disp)/abs(solid.disp)
0.9197199206564574                               0.7499135739536418                             0.7479404778747352                             0.7481341945116304                             0.7481256999308828                             0.7512394422780728                             0.10185762280462833                            0.11624924443743677                            0.126657940781356                              0.13242665388202962                            0.13532441937710799
