% Model:              15-2.mph
% Version:            COMSOL 6.2.0.339
% Date:               Aug 12 2025, 23:55
% Table:              Uer_6(线平均值) - Uer_6(线平均值)
% abs(int34(x, y, z)-solid.disp)/abs(solid.disp) abs(int35(x, y, z)-solid.disp)/abs(solid.disp) abs(int36(x, y, z)-solid.disp)/abs(solid.disp) abs(int37(x, y, z)-solid.disp)/abs(solid.disp) abs(int38(x, y, z)-solid.disp)/abs(solid.disp) abs(int39(x, y, z)-solid.disp)/abs(solid.disp) abs(int40(x, y, z)-solid.disp)/abs(solid.disp) abs(int41(x, y, z)-solid.disp)/abs(solid.disp) abs(int42(x, y, z)-solid.disp)/abs(solid.disp) abs(int43(x, y, z)-solid.disp)/abs(solid.disp) abs(int44(x, y, z)-solid.disp)/abs(solid.disp)
0.9197199206564574                               0.7499135739536418                             0.7479404778747352                             0.7481341945116304                             0.7481256999308828                             0.7511667901828358                             0.0438841595618152                             0.04106195536950981                            0.040107098219587044                           0.04061053751026579                            0.041410981328515006
