% Model:              15-2.mph
% Version:            COMSOL 6.2.0.339
% Date:               Aug 12 2025, 23:55
% Table:              Uer_8(线平均值)  - Uer_8(线平均值) 
% abs(int45(x, y, z)-solid.disp)/abs(solid.disp) abs(int46(x, y, z)-solid.disp)/abs(solid.disp) abs(int47(x, y, z)-solid.disp)/abs(solid.disp) abs(int48(x, y, z)-solid.disp)/abs(solid.disp) abs(int49(x, y, z)-solid.disp)/abs(solid.disp) abs(int50(x, y, z)-solid.disp)/abs(solid.disp) abs(int51(x, y, z)-solid.disp)/abs(solid.disp) abs(int52(x, y, z)-solid.disp)/abs(solid.disp) abs(int53(x, y, z)-solid.disp)/abs(solid.disp) abs(int54(x, y, z)-solid.disp)/abs(solid.disp) abs(int55(x, y, z)-solid.disp)/abs(solid.disp)
0.9197199206564574                               0.7499135739536418                             0.7479404778747352                             0.7481341945116304                             0.7481256999308828                             0.7511291479694664                             0.0413458018761138                             0.03966969794538003                            0.039915309190937144                           0.04221849990263101                            0.043506319623515664
