% Model:              15-2.mph
% Version:            COMSOL 6.2.0.339
% Date:               Aug 5 2025, 22:42
% Table:              Uer_8(线平均值)  - Uer_8(线平均值) 
% abs(int45(X, Y, Z)-solid.disp)/abs(solid.disp) abs(int46(X, Y, Z)-solid.disp)/abs(solid.disp) abs(int47(X, Y, Z)-solid.disp)/abs(solid.disp) abs(int48(X, Y, Z)-solid.disp)/abs(solid.disp) abs(int49(X, Y, Z)-solid.disp)/abs(solid.disp) abs(int50(X, Y, Z)-solid.disp)/abs(solid.disp) abs(int51(X, Y, Z)-solid.disp)/abs(solid.disp) abs(int52(X, Y, Z)-solid.disp)/abs(solid.disp) abs(int53(X, Y, Z)-solid.disp)/abs(solid.disp) abs(int54(X, Y, Z)-solid.disp)/abs(solid.disp) abs(int55(X, Y, Z)-solid.disp)/abs(solid.disp)
0.9197774527385094                               0.729574939035884                              0.7275585758290489                             0.7275285230888395                             0.7270883352656413                             0.7297581548653903                             0.08225326872323391                            0.08172558517722475                            0.07803080601707645                            0.07661268835146988                            0.07606139222117626
